# Region      : all 
# Cells       : 651
# Volume      : 1.000000e-06
# Time        	max(T)
0             	2.969000e+02
1             	3.145323e+02
2             	3.167892e+02
3             	3.193558e+02
4             	3.218292e+02
5             	3.242265e+02
6             	3.265724e+02
7             	3.288745e+02
8             	3.311427e+02
9             	3.333835e+02
10            	3.356012e+02
11            	3.377984e+02
12            	3.399771e+02
13            	3.421385e+02
14            	3.442832e+02
15            	3.464121e+02
16            	3.485253e+02
17            	3.506234e+02
18            	3.527065e+02
19            	3.547748e+02
20            	3.568285e+02
21            	3.588678e+02
22            	3.608929e+02
23            	3.629037e+02
24            	3.649005e+02
25            	3.668834e+02
26            	3.688525e+02
27            	3.708079e+02
28            	3.727497e+02
29            	3.746780e+02
30            	3.765930e+02
31            	3.784945e+02
32            	3.803828e+02
33            	3.822579e+02
34            	3.841199e+02
35            	3.859690e+02
36            	3.878050e+02
37            	3.896282e+02
38            	3.914386e+02
39            	3.932363e+02
40            	3.950213e+02
41            	3.967938e+02
42            	3.985539e+02
43            	4.003016e+02
44            	4.020370e+02
45            	4.037602e+02
46            	4.054711e+02
47            	4.071700e+02
48            	4.088569e+02
49            	4.105319e+02
50            	4.121950e+02
51            	4.138463e+02
52            	4.154859e+02
53            	4.171140e+02
54            	4.187305e+02
55            	4.203356e+02
56            	4.219293e+02
57            	4.235118e+02
58            	4.250831e+02
59            	4.266432e+02
60            	4.281924e+02
61            	4.297305e+02
62            	4.312578e+02
63            	4.327743e+02
64            	4.342801e+02
65            	4.357753e+02
66            	4.372599e+02
67            	4.387340e+02
68            	4.401977e+02
69            	4.416512e+02
70            	4.430943e+02
71            	4.445273e+02
72            	4.459502e+02
73            	4.473632e+02
74            	4.487661e+02
75            	4.501593e+02
76            	4.515425e+02
77            	4.529160e+02
78            	4.542798e+02
79            	4.556340e+02
80            	4.569786e+02
81            	4.583137e+02
82            	4.596394e+02
83            	4.609557e+02
84            	4.622628e+02
85            	4.635607e+02
86            	4.648493e+02
87            	4.661288e+02
88            	4.673993e+02
89            	4.686607e+02
90            	4.699133e+02
91            	4.711570e+02
92            	4.723919e+02
93            	4.736181e+02
94            	4.748357e+02
95            	4.760446e+02
96            	4.772450e+02
97            	4.784369e+02
98            	4.796204e+02
99            	4.807955e+02
100           	4.819623e+02
101           	4.831208e+02
102           	4.842711e+02
103           	4.854132e+02
104           	4.865473e+02
105           	4.876734e+02
106           	4.887915e+02
107           	4.899017e+02
108           	4.910041e+02
109           	4.920986e+02
110           	4.931853e+02
111           	4.942643e+02
112           	4.953356e+02
113           	4.963994e+02
114           	4.974555e+02
115           	4.985042e+02
116           	4.995454e+02
117           	5.005793e+02
118           	5.016057e+02
119           	5.026249e+02
120           	5.036368e+02
121           	5.046415e+02
122           	5.056391e+02
123           	5.066295e+02
124           	5.076128e+02
125           	5.085892e+02
126           	5.095585e+02
127           	5.105209e+02
128           	5.114765e+02
129           	5.124252e+02
130           	5.133671e+02
131           	5.143023e+02
132           	5.152308e+02
133           	5.161526e+02
134           	5.170679e+02
135           	5.179766e+02
136           	5.188789e+02
137           	5.197747e+02
138           	5.206641e+02
139           	5.215471e+02
140           	5.224238e+02
141           	5.232943e+02
142           	5.241586e+02
143           	5.250167e+02
144           	5.258686e+02
145           	5.267145e+02
146           	5.275543e+02
147           	5.283882e+02
148           	5.292161e+02
149           	5.300380e+02
150           	5.308541e+02
151           	5.316644e+02
152           	5.324689e+02
153           	5.332676e+02
154           	5.340606e+02
155           	5.348479e+02
156           	5.356295e+02
157           	5.364055e+02
158           	5.371760e+02
159           	5.379409e+02
160           	5.387004e+02
161           	5.394543e+02
162           	5.402028e+02
163           	5.409460e+02
164           	5.416838e+02
165           	5.424163e+02
166           	5.431435e+02
167           	5.438655e+02
168           	5.445822e+02
169           	5.452938e+02
170           	5.460003e+02
171           	5.467017e+02
172           	5.473980e+02
173           	5.480893e+02
174           	5.487756e+02
175           	5.494569e+02
176           	5.501334e+02
177           	5.508050e+02
178           	5.514717e+02
179           	5.521336e+02
180           	5.527907e+02
181           	5.534432e+02
182           	5.540909e+02
183           	5.547339e+02
184           	5.553723e+02
185           	5.560061e+02
186           	5.566353e+02
187           	5.572600e+02
188           	5.578802e+02
189           	5.584959e+02
190           	5.591071e+02
191           	5.597140e+02
192           	5.603165e+02
193           	5.609146e+02
194           	5.615084e+02
195           	5.620979e+02
196           	5.626832e+02
197           	5.632643e+02
198           	5.638411e+02
199           	5.644138e+02
200           	5.649824e+02
201           	5.655469e+02
202           	5.661073e+02
203           	5.666636e+02
204           	5.672160e+02
205           	5.677643e+02
206           	5.683087e+02
207           	5.688491e+02
208           	5.693856e+02
209           	5.699182e+02
210           	5.704470e+02
211           	5.709720e+02
212           	5.714931e+02
213           	5.720105e+02
214           	5.725241e+02
215           	5.730341e+02
216           	5.735403e+02
217           	5.740428e+02
218           	5.745417e+02
219           	5.750370e+02
220           	5.755288e+02
221           	5.760169e+02
222           	5.765015e+02
223           	5.769826e+02
224           	5.774602e+02
225           	5.779343e+02
226           	5.784050e+02
227           	5.788722e+02
228           	5.793361e+02
229           	5.797966e+02
230           	5.802538e+02
231           	5.807076e+02
232           	5.811581e+02
233           	5.816054e+02
234           	5.820494e+02
235           	5.824902e+02
236           	5.829278e+02
237           	5.833622e+02
238           	5.837934e+02
239           	5.842216e+02
240           	5.846466e+02
241           	5.850685e+02
242           	5.854873e+02
243           	5.859031e+02
244           	5.863159e+02
245           	5.867257e+02
246           	5.871325e+02
247           	5.875364e+02
248           	5.879373e+02
249           	5.883353e+02
250           	5.887304e+02
251           	5.891226e+02
252           	5.895120e+02
253           	5.898985e+02
254           	5.902822e+02
255           	5.906632e+02
256           	5.910414e+02
257           	5.914168e+02
258           	5.917895e+02
259           	5.921594e+02
260           	5.925267e+02
261           	5.928913e+02
262           	5.932533e+02
263           	5.936126e+02
264           	5.939693e+02
265           	5.943234e+02
266           	5.946749e+02
267           	5.950239e+02
268           	5.953703e+02
269           	5.957142e+02
270           	5.960556e+02
271           	5.963945e+02
272           	5.967310e+02
273           	5.970650e+02
274           	5.973965e+02
275           	5.977257e+02
276           	5.980524e+02
277           	5.983768e+02
278           	5.986988e+02
279           	5.990184e+02
280           	5.993357e+02
281           	5.996507e+02
282           	5.999634e+02
283           	6.002738e+02
284           	6.005820e+02
285           	6.008879e+02
286           	6.011915e+02
287           	6.014930e+02
288           	6.017922e+02
289           	6.020893e+02
290           	6.023842e+02
291           	6.026769e+02
292           	6.029675e+02
293           	6.032560e+02
294           	6.035423e+02
295           	6.038266e+02
296           	6.041088e+02
297           	6.043889e+02
298           	6.046670e+02
299           	6.049431e+02
300           	6.052171e+02
301           	6.054892e+02
302           	6.057592e+02
303           	6.060273e+02
304           	6.062934e+02
305           	6.065576e+02
306           	6.068199e+02
307           	6.070803e+02
308           	6.073387e+02
309           	6.075953e+02
310           	6.078501e+02
311           	6.081029e+02
312           	6.083540e+02
313           	6.086032e+02
314           	6.088505e+02
315           	6.090961e+02
316           	6.093399e+02
317           	6.095819e+02
318           	6.098221e+02
319           	6.100605e+02
320           	6.102973e+02
321           	6.105323e+02
322           	6.107655e+02
323           	6.109971e+02
324           	6.112270e+02
325           	6.114552e+02
326           	6.116817e+02
327           	6.119066e+02
328           	6.121298e+02
329           	6.123514e+02
330           	6.125714e+02
331           	6.127898e+02
332           	6.130066e+02
333           	6.132218e+02
334           	6.134354e+02
335           	6.136474e+02
336           	6.138579e+02
337           	6.140669e+02
338           	6.142744e+02
339           	6.144803e+02
340           	6.146847e+02
341           	6.148876e+02
342           	6.150891e+02
343           	6.152890e+02
344           	6.154875e+02
345           	6.156846e+02
346           	6.158802e+02
347           	6.160744e+02
348           	6.162671e+02
349           	6.164585e+02
350           	6.166484e+02
351           	6.168370e+02
352           	6.170242e+02
353           	6.172100e+02
354           	6.173944e+02
355           	6.175775e+02
356           	6.177593e+02
357           	6.179397e+02
358           	6.181188e+02
359           	6.182966e+02
360           	6.184731e+02
361           	6.186483e+02
362           	6.188222e+02
363           	6.189949e+02
364           	6.191662e+02
365           	6.193364e+02
366           	6.195052e+02
367           	6.196729e+02
368           	6.198393e+02
369           	6.200045e+02
370           	6.201685e+02
371           	6.203312e+02
372           	6.204928e+02
373           	6.206532e+02
374           	6.208124e+02
375           	6.209705e+02
376           	6.211274e+02
377           	6.212831e+02
378           	6.214377e+02
379           	6.215912e+02
380           	6.217435e+02
381           	6.218947e+02
382           	6.220448e+02
383           	6.221939e+02
384           	6.223418e+02
385           	6.224886e+02
386           	6.226344e+02
387           	6.227790e+02
388           	6.229227e+02
389           	6.230652e+02
390           	6.232068e+02
391           	6.233472e+02
392           	6.234867e+02
393           	6.236251e+02
394           	6.237625e+02
395           	6.238989e+02
396           	6.240343e+02
397           	6.241688e+02
398           	6.243022e+02
399           	6.244346e+02
400           	6.245661e+02
401           	6.246966e+02
402           	6.248261e+02
403           	6.249547e+02
404           	6.250824e+02
405           	6.252091e+02
406           	6.253349e+02
407           	6.254598e+02
408           	6.255837e+02
409           	6.257067e+02
410           	6.258289e+02
411           	6.259501e+02
412           	6.260704e+02
413           	6.261899e+02
414           	6.263085e+02
415           	6.264262e+02
416           	6.265430e+02
417           	6.266590e+02
418           	6.267742e+02
419           	6.268885e+02
420           	6.270019e+02
421           	6.271145e+02
422           	6.272263e+02
423           	6.273373e+02
424           	6.274475e+02
425           	6.275568e+02
426           	6.276653e+02
427           	6.277731e+02
428           	6.278800e+02
429           	6.279862e+02
430           	6.280916e+02
431           	6.281962e+02
432           	6.283000e+02
433           	6.284031e+02
434           	6.285054e+02
435           	6.286070e+02
436           	6.287078e+02
437           	6.288079e+02
438           	6.289073e+02
439           	6.290059e+02
440           	6.291038e+02
441           	6.292009e+02
442           	6.292974e+02
443           	6.293931e+02
444           	6.294882e+02
445           	6.295825e+02
446           	6.296762e+02
447           	6.297691e+02
448           	6.298614e+02
449           	6.299530e+02
450           	6.300439e+02
451           	6.301342e+02
452           	6.302238e+02
453           	6.303127e+02
454           	6.304010e+02
455           	6.304886e+02
456           	6.305756e+02
457           	6.306619e+02
458           	6.307476e+02
459           	6.308327e+02
460           	6.309172e+02
461           	6.310010e+02
462           	6.310842e+02
463           	6.311668e+02
464           	6.312488e+02
465           	6.313302e+02
466           	6.314110e+02
467           	6.314912e+02
468           	6.315708e+02
469           	6.316498e+02
470           	6.317283e+02
471           	6.318061e+02
472           	6.318834e+02
473           	6.319602e+02
474           	6.320363e+02
475           	6.321119e+02
476           	6.321870e+02
477           	6.322614e+02
478           	6.323354e+02
479           	6.324088e+02
480           	6.324816e+02
481           	6.325540e+02
482           	6.326257e+02
483           	6.326970e+02
484           	6.327677e+02
485           	6.328380e+02
486           	6.329077e+02
487           	6.329768e+02
488           	6.330455e+02
489           	6.331137e+02
490           	6.331814e+02
491           	6.332485e+02
492           	6.333152e+02
493           	6.333814e+02
494           	6.334471e+02
495           	6.335123e+02
496           	6.335770e+02
497           	6.336413e+02
498           	6.337051e+02
499           	6.337684e+02
500           	6.338312e+02
501           	6.338936e+02
502           	6.339556e+02
503           	6.340170e+02
504           	6.340780e+02
505           	6.341386e+02
506           	6.341987e+02
507           	6.342584e+02
508           	6.343177e+02
509           	6.343765e+02
510           	6.344348e+02
511           	6.344928e+02
512           	6.345503e+02
513           	6.346074e+02
514           	6.346640e+02
515           	6.347203e+02
516           	6.347761e+02
517           	6.348316e+02
518           	6.348866e+02
519           	6.349412e+02
520           	6.349954e+02
521           	6.350492e+02
522           	6.351026e+02
523           	6.351556e+02
524           	6.352083e+02
525           	6.352605e+02
526           	6.353124e+02
527           	6.353639e+02
528           	6.354150e+02
529           	6.354657e+02
530           	6.355160e+02
531           	6.355660e+02
532           	6.356156e+02
533           	6.356648e+02
534           	6.357137e+02
535           	6.357622e+02
536           	6.358104e+02
537           	6.358582e+02
538           	6.359057e+02
539           	6.359528e+02
540           	6.359995e+02
541           	6.360459e+02
542           	6.360920e+02
543           	6.361377e+02
544           	6.361831e+02
545           	6.362282e+02
546           	6.362729e+02
547           	6.363173e+02
548           	6.363614e+02
549           	6.364051e+02
550           	6.364486e+02
551           	6.364917e+02
552           	6.365344e+02
553           	6.365769e+02
554           	6.366191e+02
555           	6.366609e+02
556           	6.367025e+02
557           	6.367437e+02
558           	6.367846e+02
559           	6.368253e+02
560           	6.368656e+02
561           	6.369056e+02
562           	6.369453e+02
563           	6.369848e+02
564           	6.370239e+02
565           	6.370628e+02
566           	6.371014e+02
567           	6.371397e+02
568           	6.371777e+02
569           	6.372154e+02
570           	6.372529e+02
571           	6.372900e+02
572           	6.373269e+02
573           	6.373636e+02
574           	6.373999e+02
575           	6.374360e+02
576           	6.374718e+02
577           	6.375074e+02
578           	6.375427e+02
579           	6.375777e+02
580           	6.376125e+02
581           	6.376471e+02
582           	6.376813e+02
583           	6.377153e+02
584           	6.377491e+02
585           	6.377826e+02
586           	6.378159e+02
587           	6.378489e+02
588           	6.378817e+02
589           	6.379142e+02
590           	6.379465e+02
591           	6.379786e+02
592           	6.380104e+02
593           	6.380420e+02
594           	6.380734e+02
595           	6.381045e+02
596           	6.381354e+02
597           	6.381661e+02
598           	6.381965e+02
599           	6.382267e+02
600           	6.382567e+02
601           	6.382865e+02
602           	6.383160e+02
603           	6.383454e+02
604           	6.383745e+02
605           	6.384034e+02
606           	6.384321e+02
607           	6.384606e+02
608           	6.384888e+02
609           	6.385169e+02
610           	6.385448e+02
611           	6.385724e+02
612           	6.385999e+02
613           	6.386271e+02
614           	6.386541e+02
615           	6.386810e+02
616           	6.387076e+02
617           	6.387341e+02
618           	6.387603e+02
619           	6.387864e+02
620           	6.388123e+02
621           	6.388379e+02
622           	6.388634e+02
623           	6.388887e+02
624           	6.389138e+02
625           	6.389388e+02
626           	6.389635e+02
627           	6.389881e+02
628           	6.390124e+02
629           	6.390366e+02
630           	6.390607e+02
631           	6.390845e+02
632           	6.391082e+02
633           	6.391317e+02
634           	6.391550e+02
635           	6.391781e+02
636           	6.392011e+02
637           	6.392239e+02
638           	6.392466e+02
639           	6.392690e+02
640           	6.392913e+02
641           	6.393135e+02
642           	6.393355e+02
643           	6.393573e+02
644           	6.393789e+02
645           	6.394004e+02
646           	6.394218e+02
647           	6.394429e+02
648           	6.394640e+02
649           	6.394848e+02
650           	6.395055e+02
651           	6.395261e+02
652           	6.395465e+02
653           	6.395668e+02
654           	6.395869e+02
655           	6.396068e+02
656           	6.396267e+02
657           	6.396463e+02
658           	6.396659e+02
659           	6.396852e+02
660           	6.397045e+02
661           	6.397236e+02
662           	6.397425e+02
663           	6.397613e+02
664           	6.397800e+02
665           	6.397985e+02
666           	6.398169e+02
667           	6.398352e+02
668           	6.398533e+02
669           	6.398713e+02
670           	6.398892e+02
671           	6.399069e+02
672           	6.399245e+02
673           	6.399420e+02
674           	6.399593e+02
675           	6.399765e+02
676           	6.399936e+02
677           	6.400106e+02
678           	6.400274e+02
679           	6.400441e+02
680           	6.400607e+02
681           	6.400772e+02
682           	6.400935e+02
683           	6.401097e+02
684           	6.401258e+02
685           	6.401418e+02
686           	6.401577e+02
687           	6.401734e+02
688           	6.401891e+02
689           	6.402046e+02
690           	6.402200e+02
691           	6.402353e+02
692           	6.402505e+02
693           	6.402655e+02
694           	6.402805e+02
695           	6.402953e+02
696           	6.403101e+02
697           	6.403247e+02
698           	6.403392e+02
699           	6.403536e+02
700           	6.403679e+02
701           	6.403821e+02
702           	6.403962e+02
703           	6.404102e+02
704           	6.404241e+02
705           	6.404379e+02
706           	6.404515e+02
707           	6.404651e+02
708           	6.404786e+02
709           	6.404920e+02
710           	6.405053e+02
711           	6.405184e+02
712           	6.405315e+02
713           	6.405445e+02
714           	6.405574e+02
715           	6.405702e+02
716           	6.405829e+02
717           	6.405955e+02
718           	6.406080e+02
719           	6.406205e+02
720           	6.406328e+02
721           	6.406451e+02
722           	6.406572e+02
723           	6.406693e+02
724           	6.406812e+02
725           	6.406931e+02
726           	6.407049e+02
727           	6.407166e+02
728           	6.407283e+02
729           	6.407398e+02
730           	6.407513e+02
731           	6.407626e+02
732           	6.407739e+02
733           	6.407851e+02
734           	6.407962e+02
735           	6.408073e+02
736           	6.408182e+02
737           	6.408291e+02
738           	6.408399e+02
739           	6.408506e+02
740           	6.408612e+02
741           	6.408718e+02
742           	6.408823e+02
743           	6.408927e+02
744           	6.409030e+02
745           	6.409133e+02
746           	6.409234e+02
747           	6.409335e+02
748           	6.409435e+02
749           	6.409535e+02
750           	6.409634e+02
751           	6.409732e+02
752           	6.409829e+02
753           	6.409926e+02
754           	6.410022e+02
755           	6.410117e+02
756           	6.410211e+02
757           	6.410305e+02
758           	6.410398e+02
759           	6.410490e+02
760           	6.410582e+02
761           	6.410673e+02
762           	6.410764e+02
763           	6.410853e+02
764           	6.410942e+02
765           	6.411031e+02
766           	6.411118e+02
767           	6.411205e+02
768           	6.411292e+02
769           	6.411378e+02
770           	6.411463e+02
771           	6.411547e+02
772           	6.411631e+02
773           	6.411715e+02
774           	6.411797e+02
775           	6.411879e+02
776           	6.411961e+02
777           	6.412042e+02
778           	6.412122e+02
779           	6.412202e+02
780           	6.412281e+02
781           	6.412359e+02
782           	6.412437e+02
783           	6.412514e+02
784           	6.412591e+02
785           	6.412667e+02
786           	6.412743e+02
787           	6.412818e+02
788           	6.412893e+02
789           	6.412967e+02
790           	6.413040e+02
791           	6.413113e+02
792           	6.413185e+02
793           	6.413257e+02
794           	6.413328e+02
795           	6.413399e+02
796           	6.413469e+02
797           	6.413539e+02
798           	6.413608e+02
799           	6.413677e+02
800           	6.413745e+02
801           	6.413813e+02
802           	6.413880e+02
803           	6.413947e+02
804           	6.414013e+02
805           	6.414079e+02
806           	6.414144e+02
807           	6.414209e+02
808           	6.414273e+02
809           	6.414337e+02
810           	6.414400e+02
811           	6.414463e+02
812           	6.414525e+02
813           	6.414587e+02
814           	6.414649e+02
815           	6.414710e+02
816           	6.414770e+02
817           	6.414830e+02
818           	6.414890e+02
819           	6.414949e+02
820           	6.415008e+02
821           	6.415066e+02
822           	6.415124e+02
823           	6.415182e+02
824           	6.415239e+02
825           	6.415295e+02
826           	6.415352e+02
827           	6.415408e+02
828           	6.415463e+02
829           	6.415518e+02
830           	6.415573e+02
831           	6.415627e+02
832           	6.415681e+02
833           	6.415734e+02
834           	6.415787e+02
835           	6.415840e+02
836           	6.415892e+02
837           	6.415944e+02
838           	6.415995e+02
839           	6.416046e+02
840           	6.416097e+02
841           	6.416147e+02
842           	6.416197e+02
843           	6.416247e+02
844           	6.416296e+02
845           	6.416345e+02
846           	6.416393e+02
847           	6.416441e+02
848           	6.416489e+02
849           	6.416537e+02
850           	6.416584e+02
851           	6.416630e+02
852           	6.416677e+02
853           	6.416723e+02
854           	6.416769e+02
855           	6.416814e+02
856           	6.416859e+02
857           	6.416904e+02
858           	6.416948e+02
859           	6.416992e+02
860           	6.417036e+02
861           	6.417079e+02
862           	6.417122e+02
863           	6.417165e+02
864           	6.417207e+02
865           	6.417250e+02
866           	6.417291e+02
867           	6.417333e+02
868           	6.417374e+02
869           	6.417415e+02
870           	6.417456e+02
871           	6.417496e+02
872           	6.417536e+02
873           	6.417576e+02
874           	6.417615e+02
875           	6.417654e+02
876           	6.417693e+02
877           	6.417732e+02
878           	6.417770e+02
879           	6.417808e+02
880           	6.417845e+02
881           	6.417883e+02
882           	6.417920e+02
883           	6.417957e+02
884           	6.417994e+02
885           	6.418030e+02
886           	6.418066e+02
887           	6.418102e+02
888           	6.418137e+02
889           	6.418173e+02
890           	6.418208e+02
891           	6.418242e+02
892           	6.418277e+02
893           	6.418311e+02
894           	6.418345e+02
895           	6.418379e+02
896           	6.418412e+02
897           	6.418446e+02
898           	6.418479e+02
899           	6.418511e+02
900           	6.418544e+02
901           	6.418576e+02
902           	6.418608e+02
903           	6.418640e+02
904           	6.418671e+02
905           	6.418703e+02
906           	6.418734e+02
907           	6.418765e+02
908           	6.418795e+02
909           	6.418826e+02
910           	6.418856e+02
911           	6.418886e+02
912           	6.418916e+02
913           	6.418945e+02
914           	6.418975e+02
915           	6.419004e+02
916           	6.419033e+02
917           	6.419061e+02
918           	6.419090e+02
919           	6.419118e+02
920           	6.419146e+02
921           	6.419174e+02
922           	6.419201e+02
923           	6.419229e+02
924           	6.419256e+02
925           	6.419283e+02
926           	6.419310e+02
927           	6.419337e+02
928           	6.419363e+02
929           	6.419389e+02
930           	6.419415e+02
931           	6.419441e+02
932           	6.419467e+02
933           	6.419492e+02
934           	6.419518e+02
935           	6.419543e+02
936           	6.419568e+02
937           	6.419592e+02
938           	6.419617e+02
939           	6.419641e+02
940           	6.419665e+02
941           	6.419689e+02
942           	6.419713e+02
943           	6.419737e+02
944           	6.419760e+02
945           	6.419784e+02
946           	6.419807e+02
947           	6.419830e+02
948           	6.419853e+02
949           	6.419875e+02
950           	6.419898e+02
951           	6.419920e+02
952           	6.419942e+02
953           	6.419964e+02
954           	6.419986e+02
955           	6.420008e+02
956           	6.420029e+02
957           	6.420050e+02
958           	6.420072e+02
959           	6.420093e+02
960           	6.420114e+02
961           	6.420134e+02
962           	6.420155e+02
963           	6.420175e+02
964           	6.420195e+02
965           	6.420216e+02
966           	6.420236e+02
967           	6.420255e+02
968           	6.420275e+02
969           	6.420295e+02
970           	6.420314e+02
971           	6.420333e+02
972           	6.420352e+02
973           	6.420371e+02
974           	6.420390e+02
975           	6.420409e+02
976           	6.420427e+02
977           	6.420446e+02
978           	6.420464e+02
979           	6.420482e+02
980           	6.420500e+02
981           	6.420518e+02
982           	6.420536e+02
983           	6.420553e+02
984           	6.420571e+02
985           	6.420588e+02
986           	6.420605e+02
987           	6.420623e+02
988           	6.420639e+02
989           	6.420656e+02
990           	6.420673e+02
991           	6.420690e+02
992           	6.420706e+02
993           	6.420723e+02
994           	6.420739e+02
995           	6.420755e+02
996           	6.420771e+02
997           	6.420787e+02
998           	6.420803e+02
999           	6.420818e+02
1000          	6.420834e+02
1001          	6.420849e+02
1002          	6.420864e+02
1003          	6.420880e+02
1004          	6.420895e+02
1005          	6.420910e+02
1006          	6.420925e+02
1007          	6.420939e+02
1008          	6.420954e+02
1009          	6.420969e+02
1010          	6.420983e+02
1011          	6.420997e+02
1012          	6.421012e+02
1013          	6.421026e+02
1014          	6.421040e+02
1015          	6.421054e+02
1016          	6.421067e+02
1017          	6.421081e+02
1018          	6.421095e+02
1019          	6.421108e+02
1020          	6.421122e+02
1021          	6.421135e+02
1022          	6.421148e+02
1023          	6.421161e+02
1024          	6.421174e+02
1025          	6.421187e+02
1026          	6.421200e+02
1027          	6.421213e+02
1028          	6.421225e+02
1029          	6.421238e+02
1030          	6.421250e+02
1031          	6.421263e+02
1032          	6.421275e+02
1033          	6.421287e+02
1034          	6.421299e+02
1035          	6.421311e+02
1036          	6.421323e+02
1037          	6.421335e+02
1038          	6.421347e+02
1039          	6.421359e+02
1040          	6.421370e+02
1041          	6.421382e+02
1042          	6.421393e+02
1043          	6.421404e+02
1044          	6.421416e+02
1045          	6.421427e+02
1046          	6.421438e+02
1047          	6.421449e+02
1048          	6.421460e+02
1049          	6.421471e+02
1050          	6.421481e+02
1051          	6.421492e+02
1052          	6.421503e+02
1053          	6.421513e+02
1054          	6.421524e+02
1055          	6.421534e+02
1056          	6.421544e+02
1057          	6.421555e+02
1058          	6.421565e+02
1059          	6.421575e+02
1060          	6.421585e+02
1061          	6.421595e+02
1062          	6.421605e+02
1063          	6.421614e+02
1064          	6.421624e+02
1065          	6.421634e+02
1066          	6.421643e+02
1067          	6.421653e+02