# Region      : all 
# Cells       : 614
# Volume      : 1.000000e-06
# Time        	max(T)
0             	2.969000e+02
1             	3.144167e+02
2             	3.167288e+02
3             	3.193102e+02
4             	3.217440e+02
5             	3.241102e+02
6             	3.264217e+02
7             	3.286939e+02
8             	3.309353e+02
9             	3.331517e+02
10            	3.353463e+02
11            	3.375217e+02
12            	3.396792e+02
13            	3.418200e+02
14            	3.439447e+02
15            	3.460537e+02
16            	3.481475e+02
17            	3.502264e+02
18            	3.522905e+02
19            	3.543401e+02
20            	3.563754e+02
21            	3.583964e+02
22            	3.604033e+02
23            	3.623963e+02
24            	3.643755e+02
25            	3.663409e+02
26            	3.682929e+02
27            	3.702313e+02
28            	3.721563e+02
29            	3.740680e+02
30            	3.759665e+02
31            	3.778518e+02
32            	3.797240e+02
33            	3.815832e+02
34            	3.834293e+02
35            	3.852625e+02
36            	3.870827e+02
37            	3.888900e+02
38            	3.906845e+02
39            	3.924663e+02
40            	3.942354e+02
41            	3.959920e+02
42            	3.977360e+02
43            	3.994677e+02
44            	4.011870e+02
45            	4.028940e+02
46            	4.045889e+02
47            	4.062718e+02
48            	4.079425e+02
49            	4.096013e+02
50            	4.112483e+02
51            	4.128835e+02
52            	4.145070e+02
53            	4.161190e+02
54            	4.177195e+02
55            	4.193086e+02
56            	4.208865e+02
57            	4.224531e+02
58            	4.240086e+02
59            	4.255530e+02
60            	4.270865e+02
61            	4.286091e+02
62            	4.301209e+02
63            	4.316220e+02
64            	4.331124e+02
65            	4.345922e+02
66            	4.360616e+02
67            	4.375205e+02
68            	4.389690e+02
69            	4.404073e+02
70            	4.418353e+02
71            	4.432532e+02
72            	4.446610e+02
73            	4.460588e+02
74            	4.474467e+02
75            	4.488248e+02
76            	4.501930e+02
77            	4.515516e+02
78            	4.529006e+02
79            	4.542400e+02
80            	4.555699e+02
81            	4.568904e+02
82            	4.582016e+02
83            	4.595034e+02
84            	4.607960e+02
85            	4.620795e+02
86            	4.633538e+02
87            	4.646191e+02
88            	4.658753e+02
89            	4.671227e+02
90            	4.683612e+02
91            	4.695909e+02
92            	4.708119e+02
93            	4.720242e+02
94            	4.732279e+02
95            	4.744230e+02
96            	4.756097e+02
97            	4.767878e+02
98            	4.779576e+02
99            	4.791191e+02
100           	4.802723e+02
101           	4.814173e+02
102           	4.825540e+02
103           	4.836827e+02
104           	4.848034e+02
105           	4.859160e+02
106           	4.870207e+02
107           	4.881175e+02
108           	4.892064e+02
109           	4.902876e+02
110           	4.913610e+02
111           	4.924267e+02
112           	4.934847e+02
113           	4.945350e+02
114           	4.955778e+02
115           	4.966130e+02
116           	4.976407e+02
117           	4.986610e+02
118           	4.996739e+02
119           	5.006795e+02
120           	5.016777e+02
121           	5.026688e+02
122           	5.036526e+02
123           	5.046293e+02
124           	5.055990e+02
125           	5.065616e+02
126           	5.075172e+02
127           	5.084659e+02
128           	5.094077e+02
129           	5.103427e+02
130           	5.112709e+02
131           	5.121924e+02
132           	5.131072e+02
133           	5.140154e+02
134           	5.149170e+02
135           	5.158120e+02
136           	5.167005e+02
137           	5.175826e+02
138           	5.184583e+02
139           	5.193276e+02
140           	5.201906e+02
141           	5.210473e+02
142           	5.218977e+02
143           	5.227420e+02
144           	5.235801e+02
145           	5.244121e+02
146           	5.252381e+02
147           	5.260580e+02
148           	5.268719e+02
149           	5.276798e+02
150           	5.284818e+02
151           	5.292779e+02
152           	5.300682e+02
153           	5.308527e+02
154           	5.316315e+02
155           	5.324045e+02
156           	5.331719e+02
157           	5.339337e+02
158           	5.346899e+02
159           	5.354405e+02
160           	5.361857e+02
161           	5.369254e+02
162           	5.376597e+02
163           	5.383886e+02
164           	5.391121e+02
165           	5.398304e+02
166           	5.405433e+02
167           	5.412511e+02
168           	5.419537e+02
169           	5.426511e+02
170           	5.433434e+02
171           	5.440307e+02
172           	5.447129e+02
173           	5.453902e+02
174           	5.460625e+02
175           	5.467299e+02
176           	5.473924e+02
177           	5.480500e+02
178           	5.487029e+02
179           	5.493509e+02
180           	5.499943e+02
181           	5.506329e+02
182           	5.512668e+02
183           	5.518961e+02
184           	5.525208e+02
185           	5.531410e+02
186           	5.537566e+02
187           	5.543677e+02
188           	5.549743e+02
189           	5.555764e+02
190           	5.561741e+02
191           	5.567674e+02
192           	5.573564e+02
193           	5.579410e+02
194           	5.585213e+02
195           	5.590973e+02
196           	5.596691e+02
197           	5.602366e+02
198           	5.608000e+02
199           	5.613593e+02
200           	5.619144e+02
201           	5.624655e+02
202           	5.630125e+02
203           	5.635555e+02
204           	5.640945e+02
205           	5.646296e+02
206           	5.651607e+02
207           	5.656879e+02
208           	5.662112e+02
209           	5.667306e+02
210           	5.672462e+02
211           	5.677579e+02
212           	5.682658e+02
213           	5.687700e+02
214           	5.692703e+02
215           	5.697670e+02
216           	5.702600e+02
217           	5.707493e+02
218           	5.712350e+02
219           	5.717170e+02
220           	5.721955e+02
221           	5.726704e+02
222           	5.731418e+02
223           	5.736097e+02
224           	5.740741e+02
225           	5.745351e+02
226           	5.749926e+02
227           	5.754468e+02
228           	5.758976e+02
229           	5.763450e+02
230           	5.767892e+02
231           	5.772300e+02
232           	5.776676e+02
233           	5.781019e+02
234           	5.785330e+02
235           	5.789609e+02
236           	5.793857e+02
237           	5.798073e+02
238           	5.802258e+02
239           	5.806412e+02
240           	5.810535e+02
241           	5.814628e+02
242           	5.818691e+02
243           	5.822724e+02
244           	5.826727e+02
245           	5.830700e+02
246           	5.834644e+02
247           	5.838558e+02
248           	5.842444e+02
249           	5.846301e+02
250           	5.850129e+02
251           	5.853929e+02
252           	5.857701e+02
253           	5.861444e+02
254           	5.865160e+02
255           	5.868849e+02
256           	5.872510e+02
257           	5.876144e+02
258           	5.879751e+02
259           	5.883331e+02
260           	5.886885e+02
261           	5.890412e+02
262           	5.893913e+02
263           	5.897388e+02
264           	5.900838e+02
265           	5.904261e+02
266           	5.907660e+02
267           	5.911033e+02
268           	5.914381e+02
269           	5.917704e+02
270           	5.921003e+02
271           	5.924277e+02
272           	5.927527e+02
273           	5.930752e+02
274           	5.933954e+02
275           	5.937132e+02
276           	5.940286e+02
277           	5.943417e+02
278           	5.946525e+02
279           	5.949610e+02
280           	5.952672e+02
281           	5.955711e+02
282           	5.958727e+02
283           	5.961721e+02
284           	5.964693e+02
285           	5.967643e+02
286           	5.970570e+02
287           	5.973477e+02
288           	5.976361e+02
289           	5.979224e+02
290           	5.982066e+02
291           	5.984886e+02
292           	5.987686e+02
293           	5.990465e+02
294           	5.993223e+02
295           	5.995961e+02
296           	5.998678e+02
297           	6.001375e+02
298           	6.004052e+02
299           	6.006709e+02
300           	6.009346e+02
301           	6.011964e+02
302           	6.014562e+02
303           	6.017141e+02
304           	6.019701e+02
305           	6.022241e+02
306           	6.024763e+02
307           	6.027266e+02
308           	6.029750e+02
309           	6.032216e+02
310           	6.034663e+02
311           	6.037092e+02
312           	6.039503e+02
313           	6.041896e+02
314           	6.044271e+02
315           	6.046629e+02
316           	6.048969e+02
317           	6.051292e+02
318           	6.053597e+02
319           	6.055885e+02
320           	6.058156e+02
321           	6.060410e+02
322           	6.062647e+02
323           	6.064868e+02
324           	6.067072e+02
325           	6.069260e+02
326           	6.071431e+02
327           	6.073586e+02
328           	6.075725e+02
329           	6.077848e+02
330           	6.079955e+02
331           	6.082047e+02
332           	6.084123e+02
333           	6.086183e+02
334           	6.088228e+02
335           	6.090258e+02
336           	6.092273e+02
337           	6.094272e+02
338           	6.096257e+02
339           	6.098227e+02
340           	6.100182e+02
341           	6.102123e+02
342           	6.104049e+02
343           	6.105961e+02
344           	6.107858e+02
345           	6.109741e+02
346           	6.111610e+02
347           	6.113466e+02
348           	6.115307e+02
349           	6.117135e+02
350           	6.118949e+02
351           	6.120749e+02
352           	6.122536e+02
353           	6.124310e+02
354           	6.126070e+02
355           	6.127818e+02
356           	6.129552e+02
357           	6.131273e+02
358           	6.132981e+02
359           	6.134677e+02
360           	6.136360e+02
361           	6.138031e+02
362           	6.139688e+02
363           	6.141334e+02
364           	6.142967e+02
365           	6.144588e+02
366           	6.146197e+02
367           	6.147794e+02
368           	6.149379e+02
369           	6.150952e+02
370           	6.152514e+02
371           	6.154063e+02
372           	6.155602e+02
373           	6.157128e+02
374           	6.158643e+02
375           	6.160147e+02
376           	6.161640e+02
377           	6.163122e+02
378           	6.164592e+02
379           	6.166051e+02
380           	6.167500e+02
381           	6.168938e+02
382           	6.170365e+02
383           	6.171781e+02
384           	6.173187e+02
385           	6.174582e+02
386           	6.175967e+02
387           	6.177341e+02
388           	6.178705e+02
389           	6.180059e+02
390           	6.181403e+02
391           	6.182737e+02
392           	6.184060e+02
393           	6.185374e+02
394           	6.186678e+02
395           	6.187973e+02
396           	6.189257e+02
397           	6.190532e+02
398           	6.191798e+02
399           	6.193054e+02
400           	6.194300e+02
401           	6.195537e+02
402           	6.196765e+02
403           	6.197984e+02
404           	6.199194e+02
405           	6.200395e+02
406           	6.201586e+02
407           	6.202769e+02
408           	6.203943e+02
409           	6.205108e+02
410           	6.206265e+02
411           	6.207413e+02
412           	6.208552e+02
413           	6.209682e+02
414           	6.210805e+02
415           	6.211919e+02
416           	6.213024e+02
417           	6.214121e+02
418           	6.215210e+02
419           	6.216291e+02
420           	6.217364e+02
421           	6.218429e+02
422           	6.219486e+02
423           	6.220534e+02
424           	6.221576e+02
425           	6.222609e+02
426           	6.223634e+02
427           	6.224652e+02
428           	6.225662e+02
429           	6.226665e+02
430           	6.227660e+02
431           	6.228648e+02
432           	6.229628e+02
433           	6.230601e+02
434           	6.231567e+02
435           	6.232526e+02
436           	6.233477e+02
437           	6.234421e+02
438           	6.235358e+02
439           	6.236289e+02
440           	6.237212e+02
441           	6.238128e+02
442           	6.239038e+02
443           	6.239940e+02
444           	6.240836e+02
445           	6.241725e+02
446           	6.242608e+02
447           	6.243484e+02
448           	6.244353e+02
449           	6.245216e+02
450           	6.246072e+02
451           	6.246922e+02
452           	6.247766e+02
453           	6.248603e+02
454           	6.249434e+02
455           	6.250259e+02
456           	6.251078e+02
457           	6.251890e+02
458           	6.252697e+02
459           	6.253497e+02
460           	6.254292e+02
461           	6.255080e+02
462           	6.255863e+02
463           	6.256640e+02
464           	6.257411e+02
465           	6.258176e+02
466           	6.258935e+02
467           	6.259689e+02
468           	6.260437e+02
469           	6.261180e+02
470           	6.261917e+02
471           	6.262648e+02
472           	6.263374e+02
473           	6.264095e+02
474           	6.264810e+02
475           	6.265520e+02
476           	6.266224e+02
477           	6.266924e+02
478           	6.267618e+02
479           	6.268306e+02
480           	6.268990e+02
481           	6.269668e+02
482           	6.270342e+02
483           	6.271010e+02
484           	6.271674e+02
485           	6.272332e+02
486           	6.272986e+02
487           	6.273634e+02
488           	6.274278e+02
489           	6.274917e+02
490           	6.275551e+02
491           	6.276181e+02
492           	6.276805e+02
493           	6.277425e+02
494           	6.278041e+02
495           	6.278652e+02
496           	6.279258e+02
497           	6.279859e+02
498           	6.280456e+02
499           	6.281049e+02
500           	6.281637e+02
501           	6.282221e+02
502           	6.282801e+02
503           	6.283376e+02
504           	6.283947e+02
505           	6.284513e+02
506           	6.285075e+02
507           	6.285633e+02
508           	6.286187e+02
509           	6.286737e+02
510           	6.287283e+02
511           	6.287824e+02
512           	6.288362e+02
513           	6.288895e+02
514           	6.289424e+02
515           	6.289950e+02
516           	6.290471e+02
517           	6.290989e+02
518           	6.291503e+02
519           	6.292013e+02
520           	6.292519e+02
521           	6.293021e+02
522           	6.293519e+02
523           	6.294014e+02
524           	6.294505e+02
525           	6.294993e+02
526           	6.295476e+02
527           	6.295956e+02
528           	6.296433e+02
529           	6.296906e+02
530           	6.297375e+02
531           	6.297841e+02
532           	6.298304e+02
533           	6.298762e+02
534           	6.299218e+02
535           	6.299670e+02
536           	6.300119e+02
537           	6.300564e+02
538           	6.301006e+02
539           	6.301444e+02
540           	6.301880e+02
541           	6.302312e+02
542           	6.302741e+02
543           	6.303166e+02
544           	6.303589e+02
545           	6.304008e+02
546           	6.304424e+02
547           	6.304837e+02
548           	6.305247e+02
549           	6.305654e+02
550           	6.306058e+02
551           	6.306458e+02
552           	6.306856e+02
553           	6.307251e+02
554           	6.307643e+02
555           	6.308032e+02
556           	6.308418e+02
557           	6.308801e+02
558           	6.309181e+02
559           	6.309558e+02
560           	6.309933e+02
561           	6.310304e+02
562           	6.310673e+02
563           	6.311039e+02
564           	6.311403e+02
565           	6.311764e+02
566           	6.312122e+02
567           	6.312477e+02
568           	6.312829e+02
569           	6.313179e+02
570           	6.313527e+02
571           	6.313871e+02
572           	6.314214e+02
573           	6.314553e+02
574           	6.314890e+02
575           	6.315225e+02
576           	6.315557e+02
577           	6.315886e+02
578           	6.316213e+02
579           	6.316538e+02
580           	6.316860e+02
581           	6.317180e+02
582           	6.317497e+02
583           	6.317812e+02
584           	6.318125e+02
585           	6.318435e+02
586           	6.318743e+02
587           	6.319049e+02
588           	6.319352e+02
589           	6.319653e+02
590           	6.319952e+02
591           	6.320248e+02
592           	6.320543e+02
593           	6.320835e+02
594           	6.321125e+02
595           	6.321413e+02
596           	6.321698e+02
597           	6.321982e+02
598           	6.322263e+02
599           	6.322542e+02
600           	6.322819e+02
601           	6.323094e+02
602           	6.323367e+02
603           	6.323638e+02
604           	6.323907e+02
605           	6.324174e+02
606           	6.324439e+02
607           	6.324702e+02
608           	6.324963e+02
609           	6.325222e+02
610           	6.325479e+02
611           	6.325734e+02
612           	6.325987e+02
613           	6.326238e+02
614           	6.326488e+02
615           	6.326735e+02
616           	6.326981e+02
617           	6.327225e+02
618           	6.327467e+02
619           	6.327707e+02
620           	6.327945e+02
621           	6.328182e+02
622           	6.328417e+02
623           	6.328650e+02
624           	6.328881e+02
625           	6.329111e+02
626           	6.329339e+02
627           	6.329565e+02
628           	6.329789e+02
629           	6.330012e+02
630           	6.330233e+02
631           	6.330453e+02
632           	6.330670e+02
633           	6.330887e+02
634           	6.331101e+02
635           	6.331314e+02
636           	6.331525e+02
637           	6.331735e+02
638           	6.331943e+02
639           	6.332150e+02
640           	6.332355e+02
641           	6.332559e+02
642           	6.332761e+02
643           	6.332961e+02
644           	6.333160e+02
645           	6.333358e+02
646           	6.333554e+02
647           	6.333748e+02
648           	6.333941e+02
649           	6.334133e+02
650           	6.334323e+02
651           	6.334512e+02
652           	6.334699e+02
653           	6.334885e+02
654           	6.335070e+02
655           	6.335253e+02
656           	6.335435e+02
657           	6.335615e+02
658           	6.335794e+02
659           	6.335972e+02
660           	6.336148e+02
661           	6.336323e+02
662           	6.336497e+02
663           	6.336669e+02
664           	6.336841e+02
665           	6.337010e+02
666           	6.337179e+02
667           	6.337346e+02
668           	6.337512e+02
669           	6.337677e+02
670           	6.337841e+02
671           	6.338003e+02
672           	6.338164e+02
673           	6.338324e+02
674           	6.338483e+02
675           	6.338641e+02
676           	6.338797e+02
677           	6.338952e+02
678           	6.339106e+02
679           	6.339259e+02
680           	6.339411e+02
681           	6.339561e+02
682           	6.339711e+02
683           	6.339859e+02
684           	6.340006e+02
685           	6.340152e+02
686           	6.340297e+02
687           	6.340441e+02
688           	6.340584e+02
689           	6.340726e+02
690           	6.340867e+02
691           	6.341006e+02
692           	6.341145e+02
693           	6.341283e+02
694           	6.341419e+02
695           	6.341555e+02
696           	6.341689e+02
697           	6.341823e+02
698           	6.341955e+02
699           	6.342087e+02
700           	6.342217e+02
701           	6.342347e+02
702           	6.342475e+02
703           	6.342603e+02
704           	6.342729e+02
705           	6.342855e+02
706           	6.342980e+02
707           	6.343104e+02
708           	6.343226e+02
709           	6.343348e+02
710           	6.343469e+02
711           	6.343590e+02
712           	6.343709e+02
713           	6.343827e+02
714           	6.343945e+02
715           	6.344061e+02
716           	6.344177e+02
717           	6.344292e+02
718           	6.344406e+02
719           	6.344519e+02
720           	6.344631e+02
721           	6.344742e+02
722           	6.344853e+02
723           	6.344963e+02
724           	6.345072e+02
725           	6.345180e+02
726           	6.345287e+02
727           	6.345394e+02
728           	6.345499e+02
729           	6.345604e+02
730           	6.345708e+02
731           	6.345812e+02
732           	6.345914e+02
733           	6.346016e+02
734           	6.346117e+02
735           	6.346217e+02
736           	6.346317e+02
737           	6.346415e+02
738           	6.346513e+02
739           	6.346611e+02
740           	6.346707e+02
741           	6.346803e+02
742           	6.346898e+02
743           	6.346993e+02
744           	6.347086e+02
745           	6.347179e+02
746           	6.347272e+02
747           	6.347363e+02
748           	6.347454e+02
749           	6.347544e+02
750           	6.347634e+02
751           	6.347723e+02
752           	6.347811e+02
753           	6.347898e+02
754           	6.347985e+02
755           	6.348072e+02
756           	6.348157e+02
757           	6.348242e+02
758           	6.348326e+02
759           	6.348410e+02
760           	6.348493e+02
761           	6.348576e+02
762           	6.348657e+02
763           	6.348739e+02
764           	6.348819e+02
765           	6.348899e+02
766           	6.348979e+02
767           	6.349057e+02
768           	6.349136e+02
769           	6.349213e+02
770           	6.349290e+02
771           	6.349367e+02
772           	6.349442e+02
773           	6.349518e+02
774           	6.349593e+02
775           	6.349667e+02
776           	6.349740e+02
777           	6.349813e+02
778           	6.349886e+02
779           	6.349958e+02
780           	6.350029e+02
781           	6.350100e+02
782           	6.350171e+02
783           	6.350240e+02
784           	6.350310e+02
785           	6.350379e+02
786           	6.350447e+02
787           	6.350515e+02
788           	6.350582e+02
789           	6.350649e+02
790           	6.350715e+02
791           	6.350781e+02
792           	6.350846e+02
793           	6.350911e+02
794           	6.350975e+02
795           	6.351039e+02
796           	6.351102e+02
797           	6.351165e+02
798           	6.351227e+02
799           	6.351289e+02
800           	6.351351e+02
801           	6.351412e+02
802           	6.351472e+02
803           	6.351532e+02
804           	6.351592e+02
805           	6.351651e+02
806           	6.351710e+02
807           	6.351768e+02
808           	6.351826e+02
809           	6.351883e+02
810           	6.351940e+02
811           	6.351997e+02
812           	6.352053e+02
813           	6.352109e+02
814           	6.352164e+02
815           	6.352219e+02
816           	6.352273e+02
817           	6.352327e+02
818           	6.352381e+02
819           	6.352434e+02
820           	6.352487e+02
821           	6.352540e+02
822           	6.352592e+02
823           	6.352643e+02
824           	6.352695e+02
825           	6.352746e+02
826           	6.352796e+02
827           	6.352846e+02
828           	6.352896e+02
829           	6.352945e+02
830           	6.352994e+02
831           	6.353043e+02
832           	6.353091e+02
833           	6.353139e+02
834           	6.353187e+02
835           	6.353234e+02
836           	6.353281e+02
837           	6.353327e+02
838           	6.353373e+02
839           	6.353419e+02
840           	6.353465e+02
841           	6.353510e+02
842           	6.353555e+02
843           	6.353599e+02
844           	6.353643e+02
845           	6.353687e+02
846           	6.353730e+02
847           	6.353774e+02
848           	6.353816e+02
849           	6.353859e+02
850           	6.353901e+02
851           	6.353943e+02
852           	6.353984e+02
853           	6.354026e+02
854           	6.354067e+02
855           	6.354107e+02
856           	6.354147e+02
857           	6.354187e+02
858           	6.354227e+02
859           	6.354267e+02
860           	6.354306e+02
861           	6.354344e+02
862           	6.354383e+02
863           	6.354421e+02
864           	6.354459e+02
865           	6.354497e+02
866           	6.354534e+02
867           	6.354571e+02
868           	6.354608e+02
869           	6.354645e+02
870           	6.354681e+02
871           	6.354717e+02
872           	6.354753e+02
873           	6.354788e+02
874           	6.354823e+02
875           	6.354858e+02
876           	6.354893e+02
877           	6.354927e+02
878           	6.354961e+02
879           	6.354995e+02
880           	6.355029e+02
881           	6.355062e+02
882           	6.355095e+02
883           	6.355128e+02
884           	6.355161e+02
885           	6.355193e+02
886           	6.355225e+02
887           	6.355257e+02
888           	6.355289e+02
889           	6.355320e+02
890           	6.355352e+02
891           	6.355383e+02
892           	6.355413e+02
893           	6.355444e+02
894           	6.355474e+02
895           	6.355504e+02
896           	6.355534e+02
897           	6.355563e+02
898           	6.355593e+02
899           	6.355622e+02
900           	6.355651e+02
901           	6.355680e+02
902           	6.355708e+02
903           	6.355736e+02
904           	6.355764e+02
905           	6.355792e+02
906           	6.355820e+02
907           	6.355847e+02
908           	6.355875e+02
909           	6.355902e+02
910           	6.355929e+02
911           	6.355955e+02
912           	6.355982e+02
913           	6.356008e+02
914           	6.356034e+02
915           	6.356060e+02
916           	6.356085e+02
917           	6.356111e+02
918           	6.356136e+02
919           	6.356161e+02
920           	6.356186e+02
921           	6.356211e+02
922           	6.356235e+02
923           	6.356260e+02
924           	6.356284e+02
925           	6.356308e+02
926           	6.356331e+02
927           	6.356355e+02
928           	6.356378e+02
929           	6.356402e+02
930           	6.356425e+02
931           	6.356448e+02
932           	6.356470e+02
933           	6.356493e+02
934           	6.356515e+02
935           	6.356538e+02
936           	6.356560e+02
937           	6.356582e+02
938           	6.356603e+02
939           	6.356625e+02
940           	6.356646e+02
941           	6.356667e+02
942           	6.356689e+02
943           	6.356709e+02
944           	6.356730e+02
945           	6.356751e+02
946           	6.356771e+02
947           	6.356792e+02
948           	6.356812e+02
949           	6.356832e+02
950           	6.356852e+02
951           	6.356871e+02
952           	6.356891e+02
953           	6.356910e+02
954           	6.356930e+02
955           	6.356949e+02
956           	6.356968e+02
957           	6.356986e+02
958           	6.357005e+02
959           	6.357024e+02
960           	6.357042e+02
961           	6.357060e+02
962           	6.357078e+02
963           	6.357096e+02
964           	6.357114e+02
965           	6.357132e+02
966           	6.357150e+02
967           	6.357167e+02
968           	6.357184e+02
969           	6.357202e+02
970           	6.357219e+02
971           	6.357236e+02
972           	6.357252e+02
973           	6.357269e+02
974           	6.357286e+02
975           	6.357302e+02
976           	6.357318e+02
977           	6.357335e+02
978           	6.357351e+02
979           	6.357367e+02
980           	6.357383e+02
981           	6.357398e+02
982           	6.357414e+02
983           	6.357429e+02
984           	6.357445e+02
985           	6.357460e+02
986           	6.357475e+02
987           	6.357490e+02
988           	6.357505e+02
989           	6.357520e+02
990           	6.357534e+02
991           	6.357549e+02
992           	6.357564e+02
993           	6.357578e+02
994           	6.357592e+02
995           	6.357606e+02
996           	6.357620e+02
997           	6.357634e+02
998           	6.357648e+02
999           	6.357662e+02
1000          	6.357675e+02
1001          	6.357689e+02
1002          	6.357702e+02
1003          	6.357716e+02
1004          	6.357729e+02
1005          	6.357742e+02
1006          	6.357755e+02
1007          	6.357768e+02
1008          	6.357781e+02
1009          	6.357793e+02
1010          	6.357806e+02
1011          	6.357819e+02
1012          	6.357831e+02
1013          	6.357843e+02
1014          	6.357856e+02
1015          	6.357868e+02
1016          	6.357880e+02
1017          	6.357892e+02
1018          	6.357904e+02
1019          	6.357916e+02
1020          	6.357927e+02
1021          	6.357939e+02
1022          	6.357950e+02
1023          	6.357962e+02
1024          	6.357973e+02
1025          	6.357985e+02
1026          	6.357996e+02
1027          	6.358007e+02
1028          	6.358018e+02
1029          	6.358029e+02
1030          	6.358040e+02
1031          	6.358051e+02
1032          	6.358061e+02
1033          	6.358072e+02
1034          	6.358082e+02
1035          	6.358093e+02
1036          	6.358103e+02
1037          	6.358114e+02
1038          	6.358124e+02
1039          	6.358134e+02
1040          	6.358144e+02
1041          	6.358154e+02
1042          	6.358164e+02
1043          	6.358174e+02
1044          	6.358184e+02
1045          	6.358193e+02
1046          	6.358203e+02
1047          	6.358212e+02
1048          	6.358222e+02
1049          	6.358231e+02
1050          	6.358241e+02
1051          	6.358250e+02
1052          	6.358259e+02
1053          	6.358268e+02
1054          	6.358277e+02
1055          	6.358286e+02
1056          	6.358295e+02
1057          	6.358304e+02
1058          	6.358313e+02
1059          	6.358322e+02
1060          	6.358330e+02
1061          	6.358339e+02
1062          	6.358347e+02
1063          	6.358356e+02
1064          	6.358364e+02
1065          	6.358373e+02
1066          	6.358381e+02
1067          	6.358389e+02