# Region      : all 
# Cells       : 2335
# Volume      : 3.333489e-06
# Time        	max(T)
0             	2.969000e+02
1             	2.969000e+02
2             	2.995283e+02
3             	3.017772e+02
4             	3.040573e+02
5             	3.063207e+02
6             	3.085671e+02
7             	3.107964e+02
8             	3.130085e+02
9             	3.152036e+02
10            	3.173819e+02
11            	3.195464e+02
12            	3.217187e+02
13            	3.238755e+02
14            	3.260170e+02
15            	3.281432e+02
16            	3.302544e+02
17            	3.323507e+02
18            	3.344322e+02
19            	3.364991e+02
20            	3.385515e+02
21            	3.405895e+02
22            	3.426133e+02
23            	3.446231e+02
24            	3.466188e+02
25            	3.486007e+02
26            	3.505689e+02
27            	3.525234e+02
28            	3.544645e+02
29            	3.563923e+02
30            	3.583067e+02
31            	3.602077e+02
32            	3.620953e+02
33            	3.639694e+02
34            	3.658300e+02
35            	3.676770e+02
36            	3.695106e+02
37            	3.713308e+02
38            	3.731376e+02
39            	3.749309e+02
40            	3.767110e+02
41            	3.784779e+02
42            	3.802317e+02
43            	3.819724e+02
44            	3.837003e+02
45            	3.854153e+02
46            	3.871176e+02
47            	3.888073e+02
48            	3.904845e+02
49            	3.921492e+02
50            	3.938017e+02
51            	3.954419e+02
52            	3.970700e+02
53            	3.986861e+02
54            	4.002902e+02
55            	4.018824e+02
56            	4.034629e+02
57            	4.050316e+02
58            	4.065887e+02
59            	4.081343e+02
60            	4.096685e+02
61            	4.111914e+02
62            	4.127029e+02
63            	4.142034e+02
64            	4.156927e+02
65            	4.171711e+02
66            	4.186385e+02
67            	4.200951e+02
68            	4.215410e+02
69            	4.229762e+02
70            	4.244008e+02
71            	4.258149e+02
72            	4.272186e+02
73            	4.286120e+02
74            	4.299951e+02
75            	4.313681e+02
76            	4.327309e+02
77            	4.340836e+02
78            	4.354264e+02
79            	4.367593e+02
80            	4.380824e+02
81            	4.393957e+02
82            	4.406993e+02
83            	4.419933e+02
84            	4.432778e+02
85            	4.445527e+02
86            	4.458183e+02
87            	4.470745e+02
88            	4.483215e+02
89            	4.495592e+02
90            	4.507878e+02
91            	4.520073e+02
92            	4.532179e+02
93            	4.544195e+02
94            	4.556122e+02
95            	4.567961e+02
96            	4.579713e+02
97            	4.591378e+02
98            	4.602957e+02
99            	4.614451e+02
100           	4.625859e+02
101           	4.637184e+02
102           	4.648424e+02
103           	4.659582e+02
104           	4.670657e+02
105           	4.681649e+02
106           	4.692561e+02
107           	4.703392e+02
108           	4.714142e+02
109           	4.724812e+02
110           	4.735404e+02
111           	4.745918e+02
112           	4.756360e+02
113           	4.766725e+02
114           	4.777013e+02
115           	4.787225e+02
116           	4.797361e+02
117           	4.807421e+02
118           	4.817407e+02
119           	4.827319e+02
120           	4.837157e+02
121           	4.846922e+02
122           	4.856614e+02
123           	4.866234e+02
124           	4.875783e+02
125           	4.885260e+02
126           	4.894667e+02
127           	4.904004e+02
128           	4.913272e+02
129           	4.922470e+02
130           	4.931599e+02
131           	4.940661e+02
132           	4.949654e+02
133           	4.958581e+02
134           	4.967441e+02
135           	4.976235e+02
136           	4.984963e+02
137           	4.993625e+02
138           	5.002231e+02
139           	5.010773e+02
140           	5.019251e+02
141           	5.027665e+02
142           	5.036017e+02
143           	5.044306e+02
144           	5.052533e+02
145           	5.060698e+02
146           	5.068802e+02
147           	5.076846e+02
148           	5.084829e+02
149           	5.092752e+02
150           	5.100616e+02
151           	5.108421e+02
152           	5.116167e+02
153           	5.123855e+02
154           	5.131485e+02
155           	5.139058e+02
156           	5.146574e+02
157           	5.154033e+02
158           	5.161437e+02
159           	5.168784e+02
160           	5.176077e+02
161           	5.183314e+02
162           	5.190497e+02
163           	5.197625e+02
164           	5.204700e+02
165           	5.211722e+02
166           	5.218691e+02
167           	5.225607e+02
168           	5.232470e+02
169           	5.239282e+02
170           	5.246043e+02
171           	5.252753e+02
172           	5.259411e+02
173           	5.266020e+02
174           	5.272578e+02
175           	5.279087e+02
176           	5.285547e+02
177           	5.291958e+02
178           	5.298321e+02
179           	5.304635e+02
180           	5.310901e+02
181           	5.317120e+02
182           	5.323292e+02
183           	5.329418e+02
184           	5.335496e+02
185           	5.341528e+02
186           	5.347515e+02
187           	5.353456e+02
188           	5.359351e+02
189           	5.365202e+02
190           	5.371008e+02
191           	5.376769e+02
192           	5.382487e+02
193           	5.388161e+02
194           	5.393791e+02
195           	5.399379e+02
196           	5.404924e+02
197           	5.410426e+02
198           	5.415887e+02
199           	5.421305e+02
200           	5.426682e+02
201           	5.432018e+02
202           	5.437313e+02
203           	5.442568e+02
204           	5.447783e+02
205           	5.452957e+02
206           	5.458092e+02
207           	5.463188e+02
208           	5.468245e+02
209           	5.473263e+02
210           	5.478242e+02
211           	5.483184e+02
212           	5.488088e+02
213           	5.492954e+02
214           	5.497783e+02
215           	5.502575e+02
216           	5.507330e+02
217           	5.512048e+02
218           	5.516731e+02
219           	5.521378e+02
220           	5.525989e+02
221           	5.530564e+02
222           	5.535105e+02
223           	5.539610e+02
224           	5.544082e+02
225           	5.548518e+02
226           	5.552921e+02
227           	5.557290e+02
228           	5.561626e+02
229           	5.565928e+02
230           	5.570197e+02
231           	5.574434e+02
232           	5.578638e+02
233           	5.582809e+02
234           	5.586949e+02
235           	5.591057e+02
236           	5.595133e+02
237           	5.599178e+02
238           	5.603192e+02
239           	5.607175e+02
240           	5.611128e+02
241           	5.615050e+02
242           	5.618942e+02
243           	5.622804e+02
244           	5.626637e+02
245           	5.630440e+02
246           	5.634214e+02
247           	5.637959e+02
248           	5.641675e+02
249           	5.645363e+02
250           	5.649022e+02
251           	5.652653e+02
252           	5.656256e+02
253           	5.659832e+02
254           	5.663380e+02
255           	5.666901e+02
256           	5.670395e+02
257           	5.673862e+02
258           	5.677302e+02
259           	5.680716e+02
260           	5.684103e+02
261           	5.687465e+02
262           	5.690801e+02
263           	5.694111e+02
264           	5.697395e+02
265           	5.700655e+02
266           	5.703889e+02
267           	5.707098e+02
268           	5.710283e+02
269           	5.713443e+02
270           	5.716579e+02
271           	5.719690e+02
272           	5.722778e+02
273           	5.725841e+02
274           	5.728881e+02
275           	5.731898e+02
276           	5.734891e+02
277           	5.737862e+02
278           	5.740809e+02
279           	5.743734e+02
280           	5.746636e+02
281           	5.749515e+02
282           	5.752373e+02
283           	5.755208e+02
284           	5.758022e+02
285           	5.760814e+02
286           	5.763584e+02
287           	5.766333e+02
288           	5.769060e+02
289           	5.771767e+02
290           	5.774453e+02
291           	5.777118e+02
292           	5.779763e+02
293           	5.782387e+02
294           	5.784991e+02
295           	5.787574e+02
296           	5.790138e+02
297           	5.792682e+02
298           	5.795207e+02
299           	5.797712e+02
300           	5.800198e+02
301           	5.802664e+02
302           	5.805112e+02
303           	5.807540e+02
304           	5.809950e+02
305           	5.812342e+02
306           	5.814714e+02
307           	5.817069e+02
308           	5.819406e+02
309           	5.821724e+02
310           	5.824025e+02
311           	5.826307e+02
312           	5.828573e+02
313           	5.830820e+02
314           	5.833051e+02
315           	5.835264e+02
316           	5.837460e+02
317           	5.839639e+02
318           	5.841802e+02
319           	5.843947e+02
320           	5.846076e+02
321           	5.848189e+02
322           	5.850285e+02
323           	5.852366e+02
324           	5.854430e+02
325           	5.856478e+02
326           	5.858510e+02
327           	5.860526e+02
328           	5.862527e+02
329           	5.864513e+02
330           	5.866483e+02
331           	5.868438e+02
332           	5.870377e+02
333           	5.872302e+02
334           	5.874212e+02
335           	5.876107e+02
336           	5.877987e+02
337           	5.879853e+02
338           	5.881705e+02
339           	5.883542e+02
340           	5.885364e+02
341           	5.887173e+02
342           	5.888968e+02
343           	5.890749e+02
344           	5.892516e+02
345           	5.894269e+02
346           	5.896009e+02
347           	5.897735e+02
348           	5.899448e+02
349           	5.901148e+02
350           	5.902834e+02
351           	5.904507e+02
352           	5.906168e+02
353           	5.907816e+02
354           	5.909450e+02
355           	5.911073e+02
356           	5.912682e+02
357           	5.914280e+02
358           	5.915864e+02
359           	5.917437e+02
360           	5.918997e+02
361           	5.920546e+02
362           	5.922082e+02
363           	5.923607e+02
364           	5.925119e+02
365           	5.926620e+02
366           	5.928109e+02
367           	5.929587e+02
368           	5.931054e+02
369           	5.932508e+02
370           	5.933952e+02
371           	5.935385e+02
372           	5.936806e+02
373           	5.938217e+02
374           	5.939616e+02
375           	5.941005e+02
376           	5.942383e+02
377           	5.943750e+02
378           	5.945106e+02
379           	5.946452e+02
380           	5.947788e+02
381           	5.949113e+02
382           	5.950428e+02
383           	5.951733e+02
384           	5.953028e+02
385           	5.954313e+02
386           	5.955587e+02
387           	5.956852e+02
388           	5.958107e+02
389           	5.959352e+02
390           	5.960588e+02
391           	5.961814e+02
392           	5.963030e+02
393           	5.964237e+02
394           	5.965435e+02
395           	5.966624e+02
396           	5.967803e+02
397           	5.968973e+02
398           	5.970134e+02
399           	5.971285e+02
400           	5.972428e+02
401           	5.973563e+02
402           	5.974688e+02
403           	5.975804e+02
404           	5.976912e+02
405           	5.978011e+02
406           	5.979102e+02
407           	5.980184e+02
408           	5.981258e+02
409           	5.982323e+02
410           	5.983381e+02
411           	5.984429e+02
412           	5.985470e+02
413           	5.986503e+02
414           	5.987528e+02
415           	5.988544e+02
416           	5.989553e+02
417           	5.990554e+02
418           	5.991547e+02
419           	5.992532e+02
420           	5.993510e+02
421           	5.994480e+02
422           	5.995443e+02
423           	5.996398e+02
424           	5.997345e+02
425           	5.998285e+02
426           	5.999218e+02
427           	6.000144e+02
428           	6.001062e+02
429           	6.001973e+02
430           	6.002878e+02
431           	6.003775e+02
432           	6.004665e+02
433           	6.005548e+02
434           	6.006424e+02
435           	6.007294e+02
436           	6.008156e+02
437           	6.009012e+02
438           	6.009862e+02
439           	6.010704e+02
440           	6.011541e+02
441           	6.012370e+02
442           	6.013194e+02
443           	6.014010e+02
444           	6.014821e+02
445           	6.015625e+02
446           	6.016423e+02
447           	6.017215e+02
448           	6.018001e+02
449           	6.018780e+02
450           	6.019554e+02
451           	6.020321e+02
452           	6.021082e+02
453           	6.021838e+02
454           	6.022588e+02
455           	6.023332e+02
456           	6.024070e+02
457           	6.024802e+02
458           	6.025529e+02
459           	6.026250e+02
460           	6.026965e+02
461           	6.027675e+02
462           	6.028379e+02
463           	6.029078e+02
464           	6.029771e+02
465           	6.030459e+02
466           	6.031142e+02
467           	6.031819e+02
468           	6.032491e+02
469           	6.033158e+02
470           	6.033819e+02
471           	6.034476e+02
472           	6.035127e+02
473           	6.035773e+02
474           	6.036415e+02
475           	6.037051e+02
476           	6.037682e+02
477           	6.038309e+02
478           	6.038930e+02
479           	6.039547e+02
480           	6.040159e+02
481           	6.040766e+02
482           	6.041368e+02
483           	6.041966e+02
484           	6.042559e+02
485           	6.043148e+02
486           	6.043732e+02
487           	6.044311e+02
488           	6.044886e+02
489           	6.045456e+02
490           	6.046022e+02
491           	6.046583e+02
492           	6.047141e+02
493           	6.047693e+02
494           	6.048242e+02
495           	6.048786e+02
496           	6.049326e+02
497           	6.049862e+02
498           	6.050394e+02
499           	6.050921e+02
500           	6.051445e+02
501           	6.051964e+02
502           	6.052479e+02
503           	6.052990e+02
504           	6.053498e+02
505           	6.054001e+02
506           	6.054500e+02
507           	6.054996e+02
508           	6.055488e+02
509           	6.055976e+02
510           	6.056460e+02
511           	6.056940e+02
512           	6.057416e+02
513           	6.057889e+02
514           	6.058358e+02
515           	6.058824e+02
516           	6.059286e+02
517           	6.059744e+02
518           	6.060199e+02
519           	6.060650e+02
520           	6.061098e+02
521           	6.061542e+02
522           	6.061983e+02
523           	6.062420e+02
524           	6.062854e+02
525           	6.063284e+02
526           	6.063712e+02
527           	6.064135e+02
528           	6.064556e+02
529           	6.064973e+02
530           	6.065387e+02
531           	6.065798e+02
532           	6.066206e+02
533           	6.066610e+02
534           	6.067011e+02
535           	6.067409e+02
536           	6.067805e+02
537           	6.068197e+02
538           	6.068585e+02
539           	6.068971e+02
540           	6.069354e+02
541           	6.069734e+02
542           	6.070111e+02
543           	6.070485e+02
544           	6.070856e+02
545           	6.071224e+02
546           	6.071590e+02
547           	6.071952e+02
548           	6.072312e+02
549           	6.072669e+02
550           	6.073023e+02
551           	6.073374e+02
552           	6.073723e+02
553           	6.074069e+02
554           	6.074412e+02
555           	6.074752e+02
556           	6.075090e+02
557           	6.075425e+02
558           	6.075758e+02
559           	6.076088e+02
560           	6.076416e+02
561           	6.076740e+02
562           	6.077063e+02
563           	6.077383e+02
564           	6.077700e+02
565           	6.078015e+02
566           	6.078327e+02
567           	6.078637e+02
568           	6.078945e+02
569           	6.079250e+02
570           	6.079553e+02
571           	6.079853e+02
572           	6.080152e+02
573           	6.080447e+02
574           	6.080741e+02
575           	6.081032e+02
576           	6.081321e+02
577           	6.081608e+02
578           	6.081892e+02
579           	6.082174e+02
580           	6.082454e+02
581           	6.082732e+02
582           	6.083008e+02
583           	6.083281e+02
584           	6.083553e+02
585           	6.083822e+02
586           	6.084089e+02
587           	6.084354e+02
588           	6.084617e+02
589           	6.084878e+02
590           	6.085137e+02
591           	6.085394e+02
592           	6.085649e+02
593           	6.085902e+02
594           	6.086153e+02
595           	6.086402e+02
596           	6.086649e+02
597           	6.086894e+02
598           	6.087137e+02
599           	6.087378e+02
600           	6.087618e+02
601           	6.087855e+02
602           	6.088091e+02
603           	6.088325e+02
604           	6.088557e+02
605           	6.088787e+02
606           	6.089016e+02
607           	6.089242e+02
608           	6.089467e+02
609           	6.089691e+02
610           	6.089912e+02
611           	6.090132e+02
612           	6.090350e+02
613           	6.090566e+02
614           	6.090780e+02
615           	6.090993e+02
616           	6.091205e+02
617           	6.091414e+02
618           	6.091622e+02
619           	6.091828e+02
620           	6.092033e+02
621           	6.092236e+02
622           	6.092438e+02
623           	6.092638e+02
624           	6.092836e+02
625           	6.093033e+02
626           	6.093228e+02
627           	6.093422e+02
628           	6.093614e+02
629           	6.093805e+02
630           	6.093995e+02
631           	6.094182e+02
632           	6.094369e+02
633           	6.094554e+02
634           	6.094737e+02
635           	6.094919e+02
636           	6.095100e+02
637           	6.095279e+02
638           	6.095457e+02
639           	6.095633e+02
640           	6.095808e+02
641           	6.095982e+02
642           	6.096154e+02
643           	6.096325e+02
644           	6.096495e+02
645           	6.096663e+02
646           	6.096830e+02
647           	6.096996e+02
648           	6.097160e+02
649           	6.097324e+02
650           	6.097485e+02
651           	6.097646e+02
652           	6.097805e+02
653           	6.097964e+02
654           	6.098120e+02
655           	6.098276e+02
656           	6.098430e+02
657           	6.098584e+02
658           	6.098736e+02
659           	6.098887e+02
660           	6.099036e+02
661           	6.099185e+02
662           	6.099332e+02
663           	6.099478e+02
664           	6.099623e+02
665           	6.099767e+02
666           	6.099910e+02
667           	6.100052e+02
668           	6.100192e+02
669           	6.100332e+02
670           	6.100470e+02
671           	6.100608e+02
672           	6.100744e+02
673           	6.100879e+02
674           	6.101013e+02
675           	6.101146e+02
676           	6.101278e+02
677           	6.101409e+02
678           	6.101539e+02
679           	6.101668e+02
680           	6.101796e+02
681           	6.101923e+02
682           	6.102049e+02
683           	6.102174e+02
684           	6.102298e+02
685           	6.102421e+02
686           	6.102544e+02
687           	6.102665e+02
688           	6.102785e+02
689           	6.102904e+02
690           	6.103022e+02
691           	6.103140e+02
692           	6.103256e+02
693           	6.103372e+02
694           	6.103487e+02
695           	6.103600e+02
696           	6.103713e+02
697           	6.103825e+02
698           	6.103937e+02
699           	6.104047e+02
700           	6.104156e+02
701           	6.104265e+02
702           	6.104373e+02
703           	6.104480e+02
704           	6.104586e+02
705           	6.104691e+02
706           	6.104795e+02
707           	6.104899e+02
708           	6.105002e+02
709           	6.105104e+02
710           	6.105205e+02
711           	6.105305e+02
712           	6.105405e+02
713           	6.105504e+02
714           	6.105602e+02
715           	6.105699e+02
716           	6.105796e+02
717           	6.105891e+02
718           	6.105986e+02
719           	6.106081e+02
720           	6.106174e+02
721           	6.106267e+02
722           	6.106359e+02
723           	6.106451e+02
724           	6.106541e+02
725           	6.106631e+02
726           	6.106721e+02
727           	6.106809e+02
728           	6.106897e+02
729           	6.106984e+02
730           	6.107071e+02
731           	6.107157e+02
732           	6.107242e+02
733           	6.107326e+02
734           	6.107410e+02
735           	6.107493e+02
736           	6.107576e+02
737           	6.107658e+02
738           	6.107739e+02
739           	6.107820e+02
740           	6.107900e+02
741           	6.107979e+02
742           	6.108058e+02
743           	6.108136e+02
744           	6.108213e+02
745           	6.108290e+02
746           	6.108367e+02
747           	6.108442e+02
748           	6.108518e+02
749           	6.108592e+02
750           	6.108666e+02
751           	6.108740e+02
752           	6.108812e+02
753           	6.108885e+02
754           	6.108956e+02
755           	6.109027e+02
756           	6.109098e+02
757           	6.109168e+02
758           	6.109238e+02
759           	6.109307e+02
760           	6.109375e+02
761           	6.109443e+02
762           	6.109510e+02
763           	6.109577e+02
764           	6.109643e+02
765           	6.109709e+02
766           	6.109774e+02
767           	6.109839e+02
768           	6.109903e+02
769           	6.109967e+02
770           	6.110030e+02
771           	6.110093e+02
772           	6.110155e+02
773           	6.110217e+02
774           	6.110278e+02
775           	6.110339e+02
776           	6.110400e+02
777           	6.110459e+02
778           	6.110519e+02
779           	6.110578e+02
780           	6.110636e+02
781           	6.110694e+02
782           	6.110752e+02
783           	6.110809e+02
784           	6.110866e+02
785           	6.110922e+02
786           	6.110978e+02
787           	6.111033e+02
788           	6.111088e+02
789           	6.111143e+02
790           	6.111197e+02
791           	6.111250e+02
792           	6.111304e+02
793           	6.111356e+02
794           	6.111409e+02
795           	6.111461e+02
796           	6.111512e+02
797           	6.111564e+02
798           	6.111614e+02
799           	6.111665e+02
800           	6.111715e+02
801           	6.111764e+02
802           	6.111814e+02
803           	6.111862e+02
804           	6.111911e+02
805           	6.111959e+02
806           	6.112007e+02
807           	6.112054e+02
808           	6.112101e+02
809           	6.112148e+02
810           	6.112194e+02
811           	6.112240e+02
812           	6.112285e+02
813           	6.112330e+02
814           	6.112375e+02
815           	6.112420e+02
816           	6.112464e+02
817           	6.112508e+02
818           	6.112551e+02
819           	6.112594e+02
820           	6.112637e+02
821           	6.112679e+02
822           	6.112721e+02
823           	6.112763e+02
824           	6.112805e+02
825           	6.112846e+02
826           	6.112886e+02
827           	6.112927e+02
828           	6.112967e+02
829           	6.113007e+02
830           	6.113046e+02
831           	6.113086e+02
832           	6.113125e+02
833           	6.113163e+02
834           	6.113202e+02
835           	6.113240e+02
836           	6.113277e+02
837           	6.113315e+02
838           	6.113352e+02
839           	6.113389e+02
840           	6.113425e+02
841           	6.113461e+02
842           	6.113497e+02
843           	6.113533e+02
844           	6.113569e+02
845           	6.113604e+02
846           	6.113639e+02
847           	6.113673e+02
848           	6.113708e+02
849           	6.113742e+02
850           	6.113775e+02
851           	6.113809e+02
852           	6.113842e+02
853           	6.113875e+02
854           	6.113908e+02
855           	6.113941e+02
856           	6.113973e+02
857           	6.114005e+02
858           	6.114037e+02
859           	6.114068e+02
860           	6.114099e+02
861           	6.114130e+02
862           	6.114161e+02
863           	6.114192e+02
864           	6.114222e+02
865           	6.114252e+02
866           	6.114282e+02
867           	6.114311e+02
868           	6.114341e+02
869           	6.114370e+02
870           	6.114399e+02
871           	6.114427e+02
872           	6.114456e+02
873           	6.114484e+02
874           	6.114512e+02
875           	6.114540e+02
876           	6.114567e+02
877           	6.114595e+02
878           	6.114622e+02
879           	6.114649e+02
880           	6.114676e+02
881           	6.114702e+02
882           	6.114728e+02
883           	6.114755e+02
884           	6.114780e+02
885           	6.114806e+02
886           	6.114832e+02
887           	6.114857e+02
888           	6.114882e+02
889           	6.114907e+02
890           	6.114932e+02
891           	6.114956e+02
892           	6.114980e+02
893           	6.115005e+02
894           	6.115029e+02
895           	6.115052e+02
896           	6.115076e+02
897           	6.115099e+02
898           	6.115122e+02
899           	6.115145e+02
900           	6.115168e+02
901           	6.115191e+02
902           	6.115214e+02
903           	6.115236e+02
904           	6.115258e+02
905           	6.115280e+02
906           	6.115302e+02
907           	6.115323e+02
908           	6.115345e+02
909           	6.115366e+02
910           	6.115387e+02
911           	6.115408e+02
912           	6.115429e+02
913           	6.115450e+02
914           	6.115470e+02
915           	6.115490e+02
916           	6.115511e+02
917           	6.115531e+02
918           	6.115550e+02
919           	6.115570e+02
920           	6.115590e+02
921           	6.115609e+02
922           	6.115628e+02
923           	6.115647e+02
924           	6.115666e+02
925           	6.115685e+02
926           	6.115704e+02
927           	6.115722e+02
928           	6.115741e+02
929           	6.115759e+02
930           	6.115777e+02
931           	6.115795e+02
932           	6.115813e+02
933           	6.115830e+02
934           	6.115848e+02
935           	6.115865e+02
936           	6.115882e+02
937           	6.115899e+02
938           	6.115916e+02
939           	6.115933e+02
940           	6.115950e+02
941           	6.115966e+02
942           	6.115983e+02
943           	6.115999e+02
944           	6.116015e+02
945           	6.116031e+02
946           	6.116047e+02
947           	6.116063e+02
948           	6.116079e+02
949           	6.116094e+02
950           	6.116110e+02
951           	6.116125e+02
952           	6.116140e+02
953           	6.116156e+02
954           	6.116170e+02
955           	6.116185e+02
956           	6.116200e+02
957           	6.116215e+02
958           	6.116229e+02
959           	6.116244e+02
960           	6.116258e+02
961           	6.116272e+02
962           	6.116286e+02
963           	6.116300e+02
964           	6.116314e+02
965           	6.116328e+02
966           	6.116341e+02
967           	6.116355e+02
968           	6.116368e+02
969           	6.116381e+02
970           	6.116395e+02
971           	6.116408e+02
972           	6.116421e+02
973           	6.116434e+02
974           	6.116446e+02
975           	6.116459e+02
976           	6.116472e+02
977           	6.116484e+02
978           	6.116497e+02
979           	6.116509e+02
980           	6.116521e+02
981           	6.116533e+02
982           	6.116545e+02
983           	6.116557e+02
984           	6.116569e+02
985           	6.116581e+02
986           	6.116592e+02
987           	6.116604e+02
988           	6.116616e+02
989           	6.116627e+02
990           	6.116638e+02
991           	6.116649e+02
992           	6.116661e+02
993           	6.116672e+02
994           	6.116682e+02
995           	6.116693e+02
996           	6.116704e+02
997           	6.116715e+02
998           	6.116725e+02
999           	6.116736e+02
1000          	6.116746e+02
1001          	6.116757e+02
1002          	6.116767e+02
1003          	6.116777e+02
1004          	6.116787e+02
1005          	6.116797e+02
1006          	6.116807e+02
1007          	6.116817e+02
1008          	6.116827e+02
1009          	6.116837e+02
1010          	6.116846e+02
1011          	6.116856e+02
1012          	6.116865e+02
1013          	6.116875e+02
1014          	6.116884e+02
1015          	6.116894e+02
1016          	6.116903e+02
1017          	6.116912e+02
1018          	6.116921e+02
1019          	6.116930e+02
1020          	6.116939e+02
1021          	6.116948e+02
1022          	6.116957e+02
1023          	6.116965e+02
1024          	6.116974e+02
1025          	6.116982e+02
1026          	6.116991e+02
1027          	6.116999e+02
1028          	6.117008e+02
1029          	6.117016e+02
1030          	6.117024e+02
1031          	6.117033e+02
1032          	6.117041e+02
1033          	6.117049e+02
1034          	6.117057e+02
1035          	6.117065e+02
1036          	6.117073e+02
1037          	6.117080e+02
1038          	6.117088e+02
1039          	6.117096e+02
1040          	6.117103e+02
1041          	6.117111e+02
1042          	6.117119e+02
1043          	6.117126e+02
1044          	6.117133e+02
1045          	6.117141e+02
1046          	6.117148e+02
1047          	6.117155e+02
1048          	6.117162e+02
1049          	6.117170e+02
1050          	6.117177e+02
1051          	6.117184e+02
1052          	6.117191e+02
1053          	6.117197e+02
1054          	6.117204e+02
1055          	6.117211e+02
1056          	6.117218e+02
1057          	6.117224e+02
1058          	6.117231e+02
1059          	6.117238e+02
1060          	6.117244e+02
1061          	6.117251e+02
1062          	6.117257e+02
1063          	6.117263e+02
1064          	6.117270e+02
1065          	6.117276e+02
1066          	6.117282e+02
1067          	6.117288e+02