/*--------------------------------*- C++ -*----------------------------------*\
  =========                 |
  \\      /  F ield         | OpenFOAM: The Open Source CFD Toolbox
   \\    /   O peration     | Website:  https://openfoam.org
    \\  /    A nd           | Version:  10
     \\/     M anipulation  |
\*---------------------------------------------------------------------------*/
FoamFile
{
    format      binary;
    class       volScalarField;
    location    "800/fluid";
    object      rho;
}
// * * * * * * * * * * * * * * * * * * * * * * * * * * * * * * * * * * * * * //

dimensions      [1 -3 0 0 0 0 0];

internalField   uniform 1.196;

boundaryField
{
    inlet_fluid
    {
        type            calculated;
        value           uniform 1.196;
    }
    outlet_fluid
    {
        type            calculated;
        value           uniform 1.196;
    }
    walls_fluid
    {
        type            calculated;
        value           uniform 1.196;
    }
    fluid_to_fins
    {
        type            calculated;
        value           uniform 1.196;
    }
}


// ************************************************************************* //
