# Region      : all 
# Cells       : 2821
# Volume      : 4.097527e-06
# Time        	volAverage(T)
0             	2.969000e+02
1             	2.969000e+02
2             	2.991132e+02
3             	3.012821e+02
4             	3.034631e+02
5             	3.056328e+02
6             	3.077903e+02
7             	3.099322e+02
8             	3.120573e+02
9             	3.141652e+02
10            	3.162557e+02
11            	3.183289e+02
12            	3.203853e+02
13            	3.224253e+02
14            	3.244494e+02
15            	3.264574e+02
16            	3.284499e+02
17            	3.304269e+02
18            	3.323888e+02
19            	3.343355e+02
20            	3.362676e+02
21            	3.381855e+02
22            	3.400894e+02
23            	3.419792e+02
24            	3.438552e+02
25            	3.457175e+02
26            	3.475664e+02
27            	3.494017e+02
28            	3.512237e+02
29            	3.530323e+02
30            	3.548264e+02
31            	3.566050e+02
32            	3.583680e+02
33            	3.601150e+02
34            	3.618452e+02
35            	3.635587e+02
36            	3.652556e+02
37            	3.669359e+02
38            	3.685995e+02
39            	3.702466e+02
40            	3.718771e+02
41            	3.734912e+02
42            	3.750884e+02
43            	3.766687e+02
44            	3.782323e+02
45            	3.797794e+02
46            	3.813103e+02
47            	3.828251e+02
48            	3.843242e+02
49            	3.858078e+02
50            	3.872761e+02
51            	3.887290e+02
52            	3.901666e+02
53            	3.915894e+02
54            	3.929973e+02
55            	3.943906e+02
56            	3.957695e+02
57            	3.971341e+02
58            	3.984845e+02
59            	3.998209e+02
60            	4.011434e+02
61            	4.024523e+02
62            	4.037476e+02
63            	4.050296e+02
64            	4.062983e+02
65            	4.075540e+02
66            	4.087968e+02
67            	4.100268e+02
68            	4.112442e+02
69            	4.124490e+02
70            	4.136413e+02
71            	4.148214e+02
72            	4.159893e+02
73            	4.171451e+02
74            	4.182890e+02
75            	4.194210e+02
76            	4.205412e+02
77            	4.216497e+02
78            	4.227467e+02
79            	4.238322e+02
80            	4.249062e+02
81            	4.259690e+02
82            	4.270206e+02
83            	4.280610e+02
84            	4.290904e+02
85            	4.301088e+02
86            	4.311162e+02
87            	4.321128e+02
88            	4.330988e+02
89            	4.340742e+02
90            	4.350392e+02
91            	4.359939e+02
92            	4.369384e+02
93            	4.378727e+02
94            	4.387972e+02
95            	4.397116e+02
96            	4.406163e+02
97            	4.415113e+02
98            	4.423966e+02
99            	4.432723e+02
100           	4.441387e+02
101           	4.449958e+02
102           	4.458437e+02
103           	4.466825e+02
104           	4.475123e+02
105           	4.483332e+02
106           	4.491451e+02
107           	4.499482e+02
108           	4.507424e+02
109           	4.515279e+02
110           	4.523049e+02
111           	4.530733e+02
112           	4.538333e+02
113           	4.545849e+02
114           	4.553281e+02
115           	4.560631e+02
116           	4.567898e+02
117           	4.575084e+02
118           	4.582190e+02
119           	4.589217e+02
120           	4.596165e+02
121           	4.603036e+02
122           	4.609830e+02
123           	4.616548e+02
124           	4.623191e+02
125           	4.629760e+02
126           	4.636255e+02
127           	4.642678e+02
128           	4.649028e+02
129           	4.655308e+02
130           	4.661518e+02
131           	4.667657e+02
132           	4.673728e+02
133           	4.679731e+02
134           	4.685667e+02
135           	4.691536e+02
136           	4.697341e+02
137           	4.703079e+02
138           	4.708753e+02
139           	4.714362e+02
140           	4.719907e+02
141           	4.725390e+02
142           	4.730810e+02
143           	4.736169e+02
144           	4.741467e+02
145           	4.746704e+02
146           	4.751882e+02
147           	4.757001e+02
148           	4.762062e+02
149           	4.767065e+02
150           	4.772011e+02
151           	4.776900e+02
152           	4.781733e+02
153           	4.786510e+02
154           	4.791233e+02
155           	4.795901e+02
156           	4.800516e+02
157           	4.805076e+02
158           	4.809583e+02
159           	4.814038e+02
160           	4.818440e+02
161           	4.822792e+02
162           	4.827093e+02
163           	4.831343e+02
164           	4.835545e+02
165           	4.839698e+02
166           	4.843803e+02
167           	4.847861e+02
168           	4.851871e+02
169           	4.855835e+02
170           	4.859753e+02
171           	4.863624e+02
172           	4.867449e+02
173           	4.871229e+02
174           	4.874963e+02
175           	4.878652e+02
176           	4.882296e+02
177           	4.885897e+02
178           	4.889455e+02
179           	4.892970e+02
180           	4.896443e+02
181           	4.899873e+02
182           	4.903263e+02
183           	4.906612e+02
184           	4.909921e+02
185           	4.913191e+02
186           	4.916422e+02
187           	4.919615e+02
188           	4.922770e+02
189           	4.925888e+02
190           	4.928969e+02
191           	4.932014e+02
192           	4.935024e+02
193           	4.937998e+02
194           	4.940938e+02
195           	4.943844e+02
196           	4.946716e+02
197           	4.949555e+02
198           	4.952362e+02
199           	4.955136e+02
200           	4.957877e+02
201           	4.960587e+02
202           	4.963266e+02
203           	4.965913e+02
204           	4.968530e+02
205           	4.971117e+02
206           	4.973674e+02
207           	4.976202e+02
208           	4.978701e+02
209           	4.981171e+02
210           	4.983613e+02
211           	4.986026e+02
212           	4.988411e+02
213           	4.990769e+02
214           	4.993099e+02
215           	4.995403e+02
216           	4.997680e+02
217           	4.999931e+02
218           	5.002157e+02
219           	5.004357e+02
220           	5.006532e+02
221           	5.008683e+02
222           	5.010809e+02
223           	5.012911e+02
224           	5.014988e+02
225           	5.017042e+02
226           	5.019073e+02
227           	5.021079e+02
228           	5.023063e+02
229           	5.025024e+02
230           	5.026962e+02
231           	5.028879e+02
232           	5.030773e+02
233           	5.032646e+02
234           	5.034497e+02
235           	5.036326e+02
236           	5.038135e+02
237           	5.039922e+02
238           	5.041689e+02
239           	5.043434e+02
240           	5.045160e+02
241           	5.046865e+02
242           	5.048549e+02
243           	5.050213e+02
244           	5.051858e+02
245           	5.053483e+02
246           	5.055088e+02
247           	5.056674e+02
248           	5.058242e+02
249           	5.059790e+02
250           	5.061321e+02
251           	5.062832e+02
252           	5.064326e+02
253           	5.065802e+02
254           	5.067260e+02
255           	5.068701e+02
256           	5.070124e+02
257           	5.071531e+02
258           	5.072920e+02
259           	5.074293e+02
260           	5.075650e+02
261           	5.076990e+02
262           	5.078313e+02
263           	5.079621e+02
264           	5.080912e+02
265           	5.082189e+02
266           	5.083449e+02
267           	5.084695e+02
268           	5.085926e+02
269           	5.087142e+02
270           	5.088344e+02
271           	5.089531e+02
272           	5.090704e+02
273           	5.091863e+02
274           	5.093007e+02
275           	5.094139e+02
276           	5.095256e+02
277           	5.096360e+02
278           	5.097451e+02
279           	5.098529e+02
280           	5.099594e+02
281           	5.100646e+02
282           	5.101685e+02
283           	5.102711e+02
284           	5.103725e+02
285           	5.104726e+02
286           	5.105715e+02
287           	5.106692e+02
288           	5.107656e+02
289           	5.108608e+02
290           	5.109549e+02
291           	5.110478e+02
292           	5.111395e+02
293           	5.112301e+02
294           	5.113195e+02
295           	5.114078e+02
296           	5.114950e+02
297           	5.115810e+02
298           	5.116660e+02
299           	5.117498e+02
300           	5.118327e+02
301           	5.119144e+02
302           	5.119952e+02
303           	5.120749e+02
304           	5.121536e+02
305           	5.122314e+02
306           	5.123081e+02
307           	5.123839e+02
308           	5.124588e+02
309           	5.125328e+02
310           	5.126058e+02
311           	5.126780e+02
312           	5.127494e+02
313           	5.128200e+02
314           	5.128898e+02
315           	5.129587e+02
316           	5.130268e+02
317           	5.130941e+02
318           	5.131605e+02
319           	5.132262e+02
320           	5.132911e+02
321           	5.133553e+02
322           	5.134186e+02
323           	5.134813e+02
324           	5.135432e+02
325           	5.136044e+02
326           	5.136649e+02
327           	5.137247e+02
328           	5.137839e+02
329           	5.138423e+02
330           	5.139002e+02
331           	5.139573e+02
332           	5.140139e+02
333           	5.140698e+02
334           	5.141252e+02
335           	5.141799e+02
336           	5.142341e+02
337           	5.142877e+02
338           	5.143407e+02
339           	5.143932e+02
340           	5.144451e+02
341           	5.144964e+02
342           	5.145473e+02
343           	5.145975e+02
344           	5.146472e+02
345           	5.146964e+02
346           	5.147451e+02
347           	5.147932e+02
348           	5.148408e+02
349           	5.148880e+02
350           	5.149346e+02
351           	5.149807e+02
352           	5.150263e+02
353           	5.150715e+02
354           	5.151162e+02
355           	5.151605e+02
356           	5.152043e+02
357           	5.152476e+02
358           	5.152906e+02
359           	5.153330e+02
360           	5.153751e+02
361           	5.154167e+02
362           	5.154579e+02
363           	5.154986e+02
364           	5.155390e+02
365           	5.155789e+02
366           	5.156185e+02
367           	5.156576e+02
368           	5.156963e+02
369           	5.157346e+02
370           	5.157726e+02
371           	5.158101e+02
372           	5.158473e+02
373           	5.158841e+02
374           	5.159204e+02
375           	5.159564e+02
376           	5.159920e+02
377           	5.160272e+02
378           	5.160620e+02
379           	5.160965e+02
380           	5.161306e+02
381           	5.161642e+02
382           	5.161976e+02
383           	5.162305e+02
384           	5.162631e+02
385           	5.162953e+02
386           	5.163272e+02
387           	5.163587e+02
388           	5.163898e+02
389           	5.164207e+02
390           	5.164511e+02
391           	5.164812e+02
392           	5.165109e+02
393           	5.165402e+02
394           	5.165693e+02
395           	5.165980e+02
396           	5.166264e+02
397           	5.166544e+02
398           	5.166822e+02
399           	5.167097e+02
400           	5.167369e+02
401           	5.167638e+02
402           	5.167903e+02
403           	5.168166e+02
404           	5.168426e+02
405           	5.168683e+02
406           	5.168938e+02
407           	5.169189e+02
408           	5.169438e+02
409           	5.169683e+02
410           	5.169926e+02
411           	5.170166e+02
412           	5.170404e+02
413           	5.170639e+02
414           	5.170871e+02
415           	5.171101e+02
416           	5.171329e+02
417           	5.171553e+02
418           	5.171776e+02
419           	5.171996e+02
420           	5.172213e+02
421           	5.172428e+02
422           	5.172641e+02
423           	5.172851e+02
424           	5.173059e+02
425           	5.173265e+02
426           	5.173469e+02
427           	5.173670e+02
428           	5.173869e+02
429           	5.174066e+02
430           	5.174261e+02
431           	5.174453e+02
432           	5.174644e+02
433           	5.174832e+02
434           	5.175019e+02
435           	5.175203e+02
436           	5.175385e+02
437           	5.175566e+02
438           	5.175744e+02
439           	5.175921e+02
440           	5.176096e+02
441           	5.176268e+02
442           	5.176439e+02
443           	5.176608e+02
444           	5.176775e+02
445           	5.176940e+02
446           	5.177104e+02
447           	5.177266e+02
448           	5.177426e+02
449           	5.177584e+02
450           	5.177741e+02
451           	5.177896e+02
452           	5.178049e+02
453           	5.178201e+02
454           	5.178351e+02
455           	5.178499e+02
456           	5.178646e+02
457           	5.178791e+02
458           	5.178935e+02
459           	5.179077e+02
460           	5.179217e+02
461           	5.179356e+02
462           	5.179494e+02
463           	5.179630e+02
464           	5.179764e+02
465           	5.179897e+02
466           	5.180028e+02
467           	5.180158e+02
468           	5.180286e+02
469           	5.180413e+02
470           	5.180539e+02
471           	5.180663e+02
472           	5.180785e+02
473           	5.180906e+02
474           	5.181026e+02
475           	5.181144e+02
476           	5.181261e+02
477           	5.181377e+02
478           	5.181491e+02
479           	5.181604e+02
480           	5.181716e+02
481           	5.181826e+02
482           	5.181935e+02
483           	5.182043e+02
484           	5.182149e+02
485           	5.182255e+02
486           	5.182359e+02
487           	5.182461e+02
488           	5.182563e+02
489           	5.182663e+02
490           	5.182763e+02
491           	5.182861e+02
492           	5.182958e+02
493           	5.183053e+02
494           	5.183148e+02
495           	5.183242e+02
496           	5.183334e+02
497           	5.183426e+02
498           	5.183516e+02
499           	5.183606e+02
500           	5.183694e+02
501           	5.183782e+02
502           	5.183868e+02
503           	5.183954e+02
504           	5.184038e+02
505           	5.184122e+02
506           	5.184204e+02
507           	5.184286e+02
508           	5.184367e+02
509           	5.184447e+02
510           	5.184526e+02
511           	5.184604e+02
512           	5.184681e+02
513           	5.184758e+02
514           	5.184834e+02
515           	5.184909e+02
516           	5.184983e+02
517           	5.185056e+02
518           	5.185129e+02
519           	5.185201e+02
520           	5.185272e+02
521           	5.185343e+02
522           	5.185413e+02
523           	5.185482e+02
524           	5.185550e+02
525           	5.185618e+02
526           	5.185685e+02
527           	5.185752e+02
528           	5.185818e+02
529           	5.185883e+02
530           	5.185947e+02
531           	5.186011e+02
532           	5.186074e+02
533           	5.186137e+02
534           	5.186199e+02
535           	5.186260e+02
536           	5.186321e+02
537           	5.186381e+02
538           	5.186441e+02
539           	5.186500e+02
540           	5.186559e+02
541           	5.186616e+02
542           	5.186674e+02
543           	5.186731e+02
544           	5.186787e+02
545           	5.186843e+02
546           	5.186898e+02
547           	5.186953e+02
548           	5.187008e+02
549           	5.187062e+02
550           	5.187115e+02
551           	5.187168e+02
552           	5.187220e+02
553           	5.187272e+02
554           	5.187324e+02
555           	5.187375e+02
556           	5.187425e+02
557           	5.187476e+02
558           	5.187525e+02
559           	5.187575e+02
560           	5.187623e+02
561           	5.187672e+02
562           	5.187720e+02
563           	5.187767e+02
564           	5.187814e+02
565           	5.187861e+02
566           	5.187907e+02
567           	5.187953e+02
568           	5.187999e+02
569           	5.188044e+02
570           	5.188088e+02
571           	5.188133e+02
572           	5.188177e+02
573           	5.188220e+02
574           	5.188263e+02
575           	5.188306e+02
576           	5.188348e+02
577           	5.188390e+02
578           	5.188431e+02
579           	5.188472e+02
580           	5.188513e+02
581           	5.188553e+02
582           	5.188593e+02
583           	5.188633e+02
584           	5.188672e+02
585           	5.188711e+02
586           	5.188749e+02
587           	5.188787e+02
588           	5.188824e+02
589           	5.188862e+02
590           	5.188898e+02
591           	5.188935e+02
592           	5.188971e+02
593           	5.189006e+02
594           	5.189042e+02
595           	5.189077e+02
596           	5.189111e+02
597           	5.189145e+02
598           	5.189179e+02
599           	5.189212e+02
600           	5.189245e+02
601           	5.189278e+02
602           	5.189310e+02
603           	5.189342e+02
604           	5.189374e+02
605           	5.189405e+02
606           	5.189436e+02
607           	5.189466e+02
608           	5.189497e+02
609           	5.189526e+02
610           	5.189556e+02
611           	5.189585e+02
612           	5.189614e+02
613           	5.189642e+02
614           	5.189670e+02
615           	5.189698e+02
616           	5.189725e+02
617           	5.189753e+02
618           	5.189779e+02
619           	5.189806e+02
620           	5.189832e+02
621           	5.189858e+02
622           	5.189884e+02
623           	5.189909e+02
624           	5.189934e+02
625           	5.189958e+02
626           	5.189983e+02
627           	5.190007e+02
628           	5.190031e+02
629           	5.190054e+02
630           	5.190077e+02
631           	5.190100e+02
632           	5.190123e+02
633           	5.190145e+02
634           	5.190168e+02
635           	5.190189e+02
636           	5.190211e+02
637           	5.190232e+02
638           	5.190253e+02
639           	5.190274e+02
640           	5.190295e+02
641           	5.190315e+02
642           	5.190335e+02
643           	5.190355e+02
644           	5.190375e+02
645           	5.190394e+02
646           	5.190413e+02
647           	5.190432e+02
648           	5.190451e+02
649           	5.190470e+02
650           	5.190488e+02
651           	5.190506e+02
652           	5.190524e+02
653           	5.190541e+02
654           	5.190559e+02
655           	5.190576e+02
656           	5.190593e+02
657           	5.190610e+02
658           	5.190627e+02
659           	5.190643e+02
660           	5.190659e+02
661           	5.190675e+02
662           	5.190691e+02
663           	5.190707e+02
664           	5.190722e+02
665           	5.190738e+02
666           	5.190753e+02
667           	5.190768e+02
668           	5.190782e+02
669           	5.190797e+02
670           	5.190812e+02
671           	5.190826e+02
672           	5.190840e+02
673           	5.190854e+02
674           	5.190868e+02
675           	5.190882e+02
676           	5.190895e+02
677           	5.190909e+02
678           	5.190922e+02
679           	5.190935e+02
680           	5.190948e+02
681           	5.190961e+02
682           	5.190974e+02
683           	5.190987e+02
684           	5.190999e+02
685           	5.191012e+02
686           	5.191024e+02
687           	5.191037e+02
688           	5.191049e+02
689           	5.191061e+02
690           	5.191073e+02
691           	5.191085e+02
692           	5.191097e+02
693           	5.191108e+02
694           	5.191120e+02
695           	5.191132e+02
696           	5.191143e+02
697           	5.191154e+02
698           	5.191166e+02
699           	5.191177e+02
700           	5.191188e+02
701           	5.191199e+02
702           	5.191210e+02
703           	5.191221e+02
704           	5.191232e+02
705           	5.191242e+02
706           	5.191253e+02
707           	5.191263e+02
708           	5.191274e+02
709           	5.191284e+02
710           	5.191295e+02
711           	5.191305e+02
712           	5.191315e+02
713           	5.191325e+02
714           	5.191335e+02
715           	5.191345e+02
716           	5.191355e+02
717           	5.191365e+02
718           	5.191374e+02
719           	5.191384e+02
720           	5.191393e+02
721           	5.191403e+02
722           	5.191412e+02
723           	5.191421e+02
724           	5.191431e+02
725           	5.191440e+02
726           	5.191449e+02
727           	5.191458e+02
728           	5.191467e+02
729           	5.191475e+02
730           	5.191484e+02
731           	5.191493e+02
732           	5.191501e+02
733           	5.191510e+02
734           	5.191518e+02
735           	5.191527e+02
736           	5.191535e+02
737           	5.191543e+02
738           	5.191551e+02
739           	5.191559e+02
740           	5.191567e+02
741           	5.191575e+02
742           	5.191583e+02
743           	5.191591e+02
744           	5.191598e+02
745           	5.191606e+02
746           	5.191613e+02
747           	5.191621e+02
748           	5.191628e+02
749           	5.191635e+02
750           	5.191642e+02
751           	5.191649e+02
752           	5.191656e+02
753           	5.191663e+02
754           	5.191670e+02
755           	5.191677e+02
756           	5.191683e+02
757           	5.191690e+02
758           	5.191696e+02
759           	5.191703e+02
760           	5.191709e+02
761           	5.191715e+02
762           	5.191722e+02
763           	5.191728e+02
764           	5.191734e+02
765           	5.191740e+02
766           	5.191745e+02
767           	5.191751e+02
768           	5.191757e+02
769           	5.191763e+02
770           	5.191768e+02
771           	5.191774e+02
772           	5.191779e+02
773           	5.191785e+02
774           	5.191790e+02
775           	5.191795e+02
776           	5.191800e+02
777           	5.191806e+02
778           	5.191811e+02
779           	5.191816e+02
780           	5.191821e+02
781           	5.191826e+02
782           	5.191830e+02
783           	5.191835e+02
784           	5.191840e+02
785           	5.191845e+02
786           	5.191849e+02
787           	5.191854e+02
788           	5.191859e+02
789           	5.191863e+02
790           	5.191868e+02
791           	5.191872e+02
792           	5.191876e+02
793           	5.191881e+02
794           	5.191885e+02
795           	5.191890e+02
796           	5.191894e+02
797           	5.191898e+02
798           	5.191902e+02
799           	5.191907e+02
800           	5.191911e+02
801           	5.191915e+02
802           	5.191919e+02
803           	5.191923e+02
804           	5.191926e+02
805           	5.191930e+02
806           	5.191934e+02
807           	5.191938e+02
808           	5.191941e+02
809           	5.191945e+02
810           	5.191949e+02
811           	5.191952e+02
812           	5.191956e+02
813           	5.191959e+02
814           	5.191963e+02
815           	5.191966e+02
816           	5.191970e+02
817           	5.191973e+02
818           	5.191977e+02
819           	5.191980e+02
820           	5.191984e+02
821           	5.191987e+02
822           	5.191990e+02
823           	5.191994e+02
824           	5.191997e+02
825           	5.192001e+02
826           	5.192004e+02
827           	5.192007e+02
828           	5.192011e+02
829           	5.192014e+02
830           	5.192018e+02
831           	5.192021e+02
832           	5.192024e+02
833           	5.192028e+02
834           	5.192031e+02
835           	5.192035e+02
836           	5.192038e+02
837           	5.192042e+02
838           	5.192045e+02
839           	5.192048e+02
840           	5.192052e+02
841           	5.192055e+02
842           	5.192059e+02
843           	5.192062e+02
844           	5.192066e+02
845           	5.192069e+02
846           	5.192073e+02
847           	5.192076e+02
848           	5.192080e+02
849           	5.192083e+02
850           	5.192087e+02
851           	5.192091e+02
852           	5.192094e+02
853           	5.192098e+02
854           	5.192101e+02
855           	5.192105e+02
856           	5.192108e+02
857           	5.192112e+02
858           	5.192115e+02
859           	5.192119e+02
860           	5.192123e+02
861           	5.192126e+02
862           	5.192130e+02
863           	5.192133e+02
864           	5.192137e+02
865           	5.192140e+02
866           	5.192143e+02
867           	5.192147e+02
868           	5.192150e+02
869           	5.192154e+02
870           	5.192157e+02
871           	5.192161e+02
872           	5.192164e+02
873           	5.192167e+02
874           	5.192170e+02
875           	5.192174e+02
876           	5.192177e+02
877           	5.192180e+02
878           	5.192183e+02
879           	5.192186e+02
880           	5.192189e+02
881           	5.192192e+02
882           	5.192195e+02
883           	5.192198e+02
884           	5.192201e+02
885           	5.192204e+02
886           	5.192207e+02
887           	5.192210e+02
888           	5.192212e+02
889           	5.192215e+02
890           	5.192218e+02
891           	5.192221e+02
892           	5.192223e+02
893           	5.192226e+02
894           	5.192229e+02
895           	5.192231e+02
896           	5.192234e+02
897           	5.192236e+02
898           	5.192239e+02
899           	5.192241e+02
900           	5.192244e+02
901           	5.192246e+02
902           	5.192249e+02
903           	5.192251e+02
904           	5.192253e+02
905           	5.192256e+02
906           	5.192258e+02
907           	5.192260e+02
908           	5.192263e+02
909           	5.192265e+02
910           	5.192267e+02
911           	5.192269e+02
912           	5.192272e+02
913           	5.192274e+02
914           	5.192276e+02
915           	5.192278e+02
916           	5.192280e+02
917           	5.192282e+02
918           	5.192284e+02
919           	5.192287e+02
920           	5.192289e+02
921           	5.192291e+02
922           	5.192293e+02
923           	5.192295e+02
924           	5.192297e+02
925           	5.192299e+02
926           	5.192301e+02
927           	5.192303e+02
928           	5.192305e+02
929           	5.192307e+02
930           	5.192309e+02
931           	5.192311e+02
932           	5.192312e+02
933           	5.192314e+02
934           	5.192316e+02
935           	5.192318e+02
936           	5.192320e+02
937           	5.192322e+02
938           	5.192324e+02
939           	5.192326e+02
940           	5.192328e+02
941           	5.192330e+02
942           	5.192331e+02
943           	5.192333e+02
944           	5.192335e+02
945           	5.192337e+02
946           	5.192339e+02
947           	5.192341e+02
948           	5.192342e+02
949           	5.192344e+02
950           	5.192346e+02
951           	5.192348e+02
952           	5.192350e+02
953           	5.192351e+02
954           	5.192353e+02
955           	5.192355e+02
956           	5.192357e+02
957           	5.192359e+02
958           	5.192360e+02
959           	5.192362e+02
960           	5.192364e+02
961           	5.192366e+02
962           	5.192367e+02
963           	5.192369e+02
964           	5.192371e+02
965           	5.192373e+02
966           	5.192374e+02
967           	5.192376e+02
968           	5.192378e+02
969           	5.192380e+02
970           	5.192381e+02
971           	5.192383e+02
972           	5.192385e+02
973           	5.192386e+02
974           	5.192388e+02
975           	5.192390e+02
976           	5.192392e+02
977           	5.192393e+02
978           	5.192395e+02
979           	5.192397e+02
980           	5.192398e+02
981           	5.192400e+02
982           	5.192402e+02
983           	5.192403e+02
984           	5.192405e+02
985           	5.192407e+02
986           	5.192408e+02
987           	5.192410e+02
988           	5.192412e+02
989           	5.192413e+02
990           	5.192415e+02
991           	5.192417e+02
992           	5.192418e+02
993           	5.192420e+02
994           	5.192422e+02
995           	5.192423e+02
996           	5.192425e+02
997           	5.192427e+02
998           	5.192428e+02
999           	5.192430e+02
1000          	5.192432e+02
1001          	5.192433e+02
1002          	5.192435e+02
1003          	5.192437e+02
1004          	5.192438e+02
1005          	5.192440e+02
1006          	5.192442e+02
1007          	5.192443e+02
1008          	5.192445e+02
1009          	5.192447e+02
1010          	5.192448e+02
1011          	5.192450e+02
1012          	5.192452e+02
1013          	5.192453e+02
1014          	5.192455e+02
1015          	5.192457e+02
1016          	5.192458e+02
1017          	5.192460e+02
1018          	5.192462e+02
1019          	5.192463e+02
1020          	5.192465e+02
1021          	5.192467e+02
1022          	5.192468e+02
1023          	5.192470e+02
1024          	5.192472e+02
1025          	5.192473e+02
1026          	5.192475e+02
1027          	5.192477e+02
1028          	5.192478e+02
1029          	5.192480e+02
1030          	5.192482e+02
1031          	5.192483e+02
1032          	5.192485e+02
1033          	5.192487e+02
1034          	5.192488e+02
1035          	5.192490e+02
1036          	5.192492e+02
1037          	5.192493e+02
1038          	5.192495e+02
1039          	5.192497e+02
1040          	5.192499e+02
1041          	5.192500e+02
1042          	5.192502e+02
1043          	5.192504e+02
1044          	5.192505e+02
1045          	5.192507e+02
1046          	5.192509e+02
1047          	5.192510e+02
1048          	5.192512e+02
1049          	5.192514e+02
1050          	5.192516e+02
1051          	5.192517e+02
1052          	5.192519e+02
1053          	5.192521e+02
1054          	5.192522e+02
1055          	5.192524e+02
1056          	5.192526e+02
1057          	5.192528e+02
1058          	5.192529e+02
1059          	5.192531e+02
1060          	5.192533e+02
1061          	5.192534e+02
1062          	5.192536e+02
1063          	5.192538e+02
1064          	5.192540e+02
1065          	5.192541e+02
1066          	5.192543e+02