# Region      : all 
# Cells       : 667
# Volume      : 1.000000e-06
# Time        	max(T)
0             	2.969000e+02
1             	3.143561e+02
2             	3.166740e+02
3             	3.192200e+02
4             	3.216353e+02
5             	3.239742e+02
6             	3.262558e+02
7             	3.284954e+02
8             	3.307005e+02
9             	3.328766e+02
10            	3.350278e+02
11            	3.371569e+02
12            	3.392656e+02
13            	3.413555e+02
14            	3.434275e+02
15            	3.454822e+02
16            	3.475201e+02
17            	3.495417e+02
18            	3.515473e+02
19            	3.535371e+02
20            	3.555116e+02
21            	3.574709e+02
22            	3.594156e+02
23            	3.613456e+02
24            	3.632613e+02
25            	3.651627e+02
26            	3.670502e+02
27            	3.689238e+02
28            	3.707836e+02
29            	3.726297e+02
30            	3.744615e+02
31            	3.762785e+02
32            	3.780804e+02
33            	3.798667e+02
34            	3.816371e+02
35            	3.833912e+02
36            	3.851290e+02
37            	3.868504e+02
38            	3.885553e+02
39            	3.902437e+02
40            	3.919155e+02
41            	3.935708e+02
42            	3.952095e+02
43            	3.968314e+02
44            	3.984365e+02
45            	4.000250e+02
46            	4.015971e+02
47            	4.031528e+02
48            	4.046925e+02
49            	4.062162e+02
50            	4.077242e+02
51            	4.092166e+02
52            	4.106934e+02
53            	4.121548e+02
54            	4.136011e+02
55            	4.150324e+02
56            	4.164488e+02
57            	4.178505e+02
58            	4.192377e+02
59            	4.206105e+02
60            	4.219691e+02
61            	4.233136e+02
62            	4.246442e+02
63            	4.259611e+02
64            	4.272644e+02
65            	4.285542e+02
66            	4.298307e+02
67            	4.310940e+02
68            	4.323443e+02
69            	4.335818e+02
70            	4.348064e+02
71            	4.360184e+02
72            	4.372179e+02
73            	4.384050e+02
74            	4.395798e+02
75            	4.407425e+02
76            	4.418931e+02
77            	4.430318e+02
78            	4.441586e+02
79            	4.452736e+02
80            	4.463770e+02
81            	4.474689e+02
82            	4.485493e+02
83            	4.496183e+02
84            	4.506761e+02
85            	4.517226e+02
86            	4.527580e+02
87            	4.537824e+02
88            	4.547959e+02
89            	4.557986e+02
90            	4.567905e+02
91            	4.577719e+02
92            	4.587428e+02
93            	4.597034e+02
94            	4.606537e+02
95            	4.615938e+02
96            	4.625238e+02
97            	4.634439e+02
98            	4.643540e+02
99            	4.652544e+02
100           	4.661452e+02
101           	4.670263e+02
102           	4.678981e+02
103           	4.687604e+02
104           	4.696135e+02
105           	4.704574e+02
106           	4.712923e+02
107           	4.721180e+02
108           	4.729348e+02
109           	4.737427e+02
110           	4.745418e+02
111           	4.753322e+02
112           	4.761139e+02
113           	4.768871e+02
114           	4.776517e+02
115           	4.784079e+02
116           	4.791558e+02
117           	4.798953e+02
118           	4.806266e+02
119           	4.813498e+02
120           	4.820650e+02
121           	4.827722e+02
122           	4.834716e+02
123           	4.841632e+02
124           	4.848471e+02
125           	4.855233e+02
126           	4.861920e+02
127           	4.868532e+02
128           	4.875071e+02
129           	4.881537e+02
130           	4.887930e+02
131           	4.894251e+02
132           	4.900502e+02
133           	4.906683e+02
134           	4.912794e+02
135           	4.918838e+02
136           	4.924814e+02
137           	4.930723e+02
138           	4.936565e+02
139           	4.942341e+02
140           	4.948052e+02
141           	4.953698e+02
142           	4.959280e+02
143           	4.964799e+02
144           	4.970255e+02
145           	4.975649e+02
146           	4.980982e+02
147           	4.986255e+02
148           	4.991467e+02
149           	4.996621e+02
150           	5.001715e+02
151           	5.006751e+02
152           	5.011730e+02
153           	5.016652e+02
154           	5.021517e+02
155           	5.026326e+02
156           	5.031081e+02
157           	5.035780e+02
158           	5.040425e+02
159           	5.045016e+02
160           	5.049553e+02
161           	5.054038e+02
162           	5.058471e+02
163           	5.062852e+02
164           	5.067183e+02
165           	5.071464e+02
166           	5.075694e+02
167           	5.079876e+02
168           	5.084010e+02
169           	5.088096e+02
170           	5.092134e+02
171           	5.096124e+02
172           	5.100068e+02
173           	5.103965e+02
174           	5.107816e+02
175           	5.111620e+02
176           	5.115380e+02
177           	5.119094e+02
178           	5.122764e+02
179           	5.126390e+02
180           	5.129972e+02
181           	5.133512e+02
182           	5.137009e+02
183           	5.140464e+02
184           	5.143878e+02
185           	5.147251e+02
186           	5.150583e+02
187           	5.153877e+02
188           	5.157131e+02
189           	5.160347e+02
190           	5.163524e+02
191           	5.166665e+02
192           	5.169768e+02
193           	5.172835e+02
194           	5.175865e+02
195           	5.178861e+02
196           	5.181822e+02
197           	5.184748e+02
198           	5.187641e+02
199           	5.190500e+02
200           	5.193326e+02
201           	5.196119e+02
202           	5.198879e+02
203           	5.201608e+02
204           	5.204305e+02
205           	5.206970e+02
206           	5.209606e+02
207           	5.212210e+02
208           	5.214785e+02
209           	5.217330e+02
210           	5.219846e+02
211           	5.222332e+02
212           	5.224790e+02
213           	5.227220e+02
214           	5.229621e+02
215           	5.231995e+02
216           	5.234342e+02
217           	5.236661e+02
218           	5.238954e+02
219           	5.241221e+02
220           	5.243462e+02
221           	5.245678e+02
222           	5.247868e+02
223           	5.250033e+02
224           	5.252173e+02
225           	5.254289e+02
226           	5.256381e+02
227           	5.258448e+02
228           	5.260492e+02
229           	5.262513e+02
230           	5.264510e+02
231           	5.266484e+02
232           	5.268436e+02
233           	5.270365e+02
234           	5.272272e+02
235           	5.274157e+02
236           	5.276021e+02
237           	5.277863e+02
238           	5.279683e+02
239           	5.281482e+02
240           	5.283260e+02
241           	5.285018e+02
242           	5.286754e+02
243           	5.288470e+02
244           	5.290166e+02
245           	5.291841e+02
246           	5.293497e+02
247           	5.295133e+02
248           	5.296749e+02
249           	5.298347e+02
250           	5.299925e+02
251           	5.301484e+02
252           	5.303025e+02
253           	5.304547e+02
254           	5.306051e+02
255           	5.307537e+02
256           	5.309005e+02
257           	5.310456e+02
258           	5.311889e+02
259           	5.313305e+02
260           	5.314704e+02
261           	5.316086e+02
262           	5.317452e+02
263           	5.318801e+02
264           	5.320134e+02
265           	5.321450e+02
266           	5.322751e+02
267           	5.324036e+02
268           	5.325306e+02
269           	5.326561e+02
270           	5.327800e+02
271           	5.329025e+02
272           	5.330235e+02
273           	5.331430e+02
274           	5.332611e+02
275           	5.333778e+02
276           	5.334931e+02
277           	5.336070e+02
278           	5.337196e+02
279           	5.338307e+02
280           	5.339406e+02
281           	5.340491e+02
282           	5.341563e+02
283           	5.342622e+02
284           	5.343668e+02
285           	5.344702e+02
286           	5.345722e+02
287           	5.346730e+02
288           	5.347726e+02
289           	5.348709e+02
290           	5.349680e+02
291           	5.350639e+02
292           	5.351586e+02
293           	5.352521e+02
294           	5.353445e+02
295           	5.354357e+02
296           	5.355257e+02
297           	5.356146e+02
298           	5.357023e+02
299           	5.357890e+02
300           	5.358745e+02
301           	5.359590e+02
302           	5.360424e+02
303           	5.361248e+02
304           	5.362061e+02
305           	5.362864e+02
306           	5.363657e+02
307           	5.364441e+02
308           	5.365214e+02
309           	5.365978e+02
310           	5.366732e+02
311           	5.367478e+02
312           	5.368214e+02
313           	5.368942e+02
314           	5.369662e+02
315           	5.370372e+02
316           	5.371075e+02
317           	5.371769e+02
318           	5.372454e+02
319           	5.373132e+02
320           	5.373801e+02
321           	5.374462e+02
322           	5.375116e+02
323           	5.375762e+02
324           	5.376400e+02
325           	5.377031e+02
326           	5.377655e+02
327           	5.378271e+02
328           	5.378880e+02
329           	5.379483e+02
330           	5.380078e+02
331           	5.380667e+02
332           	5.381250e+02
333           	5.381826e+02
334           	5.382395e+02
335           	5.382959e+02
336           	5.383516e+02
337           	5.384068e+02
338           	5.384613e+02
339           	5.385153e+02
340           	5.385687e+02
341           	5.386215e+02
342           	5.386737e+02
343           	5.387254e+02
344           	5.387765e+02
345           	5.388271e+02
346           	5.388772e+02
347           	5.389267e+02
348           	5.389756e+02
349           	5.390241e+02
350           	5.390720e+02
351           	5.391194e+02
352           	5.391664e+02
353           	5.392128e+02
354           	5.392588e+02
355           	5.393043e+02
356           	5.393493e+02
357           	5.393938e+02
358           	5.394379e+02
359           	5.394815e+02
360           	5.395247e+02
361           	5.395675e+02
362           	5.396098e+02
363           	5.396517e+02
364           	5.396931e+02
365           	5.397341e+02
366           	5.397747e+02
367           	5.398149e+02
368           	5.398547e+02
369           	5.398941e+02
370           	5.399330e+02
371           	5.399716e+02
372           	5.400098e+02
373           	5.400475e+02
374           	5.400849e+02
375           	5.401219e+02
376           	5.401585e+02
377           	5.401947e+02
378           	5.402305e+02
379           	5.402659e+02
380           	5.403010e+02
381           	5.403357e+02
382           	5.403700e+02
383           	5.404039e+02
384           	5.404374e+02
385           	5.404706e+02
386           	5.405034e+02
387           	5.405359e+02
388           	5.405680e+02
389           	5.405997e+02
390           	5.406311e+02
391           	5.406621e+02
392           	5.406927e+02
393           	5.407230e+02
394           	5.407530e+02
395           	5.407826e+02
396           	5.408119e+02
397           	5.408408e+02
398           	5.408695e+02
399           	5.408978e+02
400           	5.409258e+02
401           	5.409535e+02
402           	5.409809e+02
403           	5.410080e+02
404           	5.410348e+02
405           	5.410613e+02
406           	5.410875e+02
407           	5.411134e+02
408           	5.411391e+02
409           	5.411644e+02
410           	5.411895e+02
411           	5.412142e+02
412           	5.412387e+02
413           	5.412630e+02
414           	5.412869e+02
415           	5.413106e+02
416           	5.413340e+02
417           	5.413572e+02
418           	5.413801e+02
419           	5.414028e+02
420           	5.414252e+02
421           	5.414474e+02
422           	5.414693e+02
423           	5.414910e+02
424           	5.415125e+02
425           	5.415337e+02
426           	5.415546e+02
427           	5.415754e+02
428           	5.415959e+02
429           	5.416162e+02
430           	5.416363e+02
431           	5.416561e+02
432           	5.416757e+02
433           	5.416952e+02
434           	5.417144e+02
435           	5.417334e+02
436           	5.417522e+02
437           	5.417707e+02
438           	5.417891e+02
439           	5.418073e+02
440           	5.418253e+02
441           	5.418431e+02
442           	5.418607e+02
443           	5.418781e+02
444           	5.418953e+02
445           	5.419123e+02
446           	5.419292e+02
447           	5.419458e+02
448           	5.419623e+02
449           	5.419786e+02
450           	5.419947e+02
451           	5.420107e+02
452           	5.420265e+02
453           	5.420421e+02
454           	5.420575e+02
455           	5.420728e+02
456           	5.420879e+02
457           	5.421029e+02
458           	5.421177e+02
459           	5.421323e+02
460           	5.421468e+02
461           	5.421611e+02
462           	5.421752e+02
463           	5.421892e+02
464           	5.422031e+02
465           	5.422167e+02
466           	5.422303e+02
467           	5.422436e+02
468           	5.422569e+02
469           	5.422699e+02
470           	5.422829e+02
471           	5.422957e+02
472           	5.423083e+02
473           	5.423208e+02
474           	5.423331e+02
475           	5.423453e+02
476           	5.423574e+02
477           	5.423693e+02
478           	5.423811e+02
479           	5.423927e+02
480           	5.424042e+02
481           	5.424156e+02
482           	5.424269e+02
483           	5.424380e+02
484           	5.424490e+02
485           	5.424598e+02
486           	5.424706e+02
487           	5.424812e+02
488           	5.424917e+02
489           	5.425020e+02
490           	5.425123e+02
491           	5.425224e+02
492           	5.425324e+02
493           	5.425423e+02
494           	5.425521e+02
495           	5.425617e+02
496           	5.425713e+02
497           	5.425807e+02
498           	5.425901e+02
499           	5.425993e+02
500           	5.426084e+02
501           	5.426174e+02
502           	5.426263e+02
503           	5.426352e+02
504           	5.426439e+02
505           	5.426525e+02
506           	5.426610e+02
507           	5.426694e+02
508           	5.426778e+02
509           	5.426860e+02
510           	5.426941e+02
511           	5.427022e+02
512           	5.427102e+02
513           	5.427181e+02
514           	5.427259e+02
515           	5.427336e+02
516           	5.427412e+02
517           	5.427488e+02
518           	5.427563e+02
519           	5.427637e+02
520           	5.427710e+02
521           	5.427783e+02
522           	5.427854e+02
523           	5.427926e+02
524           	5.427996e+02
525           	5.428066e+02
526           	5.428135e+02
527           	5.428203e+02
528           	5.428271e+02
529           	5.428338e+02
530           	5.428404e+02
531           	5.428470e+02
532           	5.428535e+02
533           	5.428599e+02
534           	5.428663e+02
535           	5.428726e+02
536           	5.428788e+02
537           	5.428850e+02
538           	5.428911e+02
539           	5.428972e+02
540           	5.429032e+02
541           	5.429092e+02
542           	5.429150e+02
543           	5.429209e+02
544           	5.429267e+02
545           	5.429324e+02
546           	5.429381e+02
547           	5.429437e+02
548           	5.429493e+02
549           	5.429548e+02
550           	5.429603e+02
551           	5.429657e+02
552           	5.429711e+02
553           	5.429764e+02
554           	5.429817e+02
555           	5.429869e+02
556           	5.429921e+02
557           	5.429973e+02
558           	5.430024e+02
559           	5.430074e+02
560           	5.430124e+02
561           	5.430174e+02
562           	5.430223e+02
563           	5.430272e+02
564           	5.430320e+02
565           	5.430368e+02
566           	5.430415e+02
567           	5.430462e+02
568           	5.430509e+02
569           	5.430555e+02
570           	5.430601e+02
571           	5.430646e+02
572           	5.430691e+02
573           	5.430736e+02
574           	5.430780e+02
575           	5.430824e+02
576           	5.430867e+02
577           	5.430910e+02
578           	5.430952e+02
579           	5.430994e+02
580           	5.431036e+02
581           	5.431078e+02
582           	5.431118e+02
583           	5.431159e+02
584           	5.431199e+02
585           	5.431239e+02
586           	5.431278e+02
587           	5.431317e+02
588           	5.431356e+02
589           	5.431394e+02
590           	5.431432e+02
591           	5.431469e+02
592           	5.431506e+02
593           	5.431543e+02
594           	5.431579e+02
595           	5.431615e+02
596           	5.431650e+02
597           	5.431685e+02
598           	5.431720e+02
599           	5.431754e+02
600           	5.431788e+02
601           	5.431822e+02
602           	5.431855e+02
603           	5.431888e+02
604           	5.431921e+02
605           	5.431953e+02
606           	5.431984e+02
607           	5.432016e+02
608           	5.432047e+02
609           	5.432078e+02
610           	5.432108e+02
611           	5.432138e+02
612           	5.432168e+02
613           	5.432197e+02
614           	5.432226e+02
615           	5.432254e+02
616           	5.432283e+02
617           	5.432311e+02
618           	5.432338e+02
619           	5.432366e+02
620           	5.432392e+02
621           	5.432419e+02
622           	5.432445e+02
623           	5.432471e+02
624           	5.432497e+02
625           	5.432523e+02
626           	5.432548e+02
627           	5.432572e+02
628           	5.432597e+02
629           	5.432621e+02
630           	5.432645e+02
631           	5.432669e+02
632           	5.432692e+02
633           	5.432715e+02
634           	5.432738e+02
635           	5.432761e+02
636           	5.432783e+02
637           	5.432805e+02
638           	5.432826e+02
639           	5.432848e+02
640           	5.432869e+02
641           	5.432890e+02
642           	5.432911e+02
643           	5.432931e+02
644           	5.432952e+02
645           	5.432971e+02
646           	5.432991e+02
647           	5.433011e+02
648           	5.433030e+02
649           	5.433049e+02
650           	5.433068e+02
651           	5.433086e+02
652           	5.433105e+02
653           	5.433123e+02
654           	5.433141e+02
655           	5.433159e+02
656           	5.433176e+02
657           	5.433193e+02
658           	5.433211e+02
659           	5.433227e+02
660           	5.433244e+02
661           	5.433261e+02
662           	5.433277e+02
663           	5.433293e+02
664           	5.433309e+02
665           	5.433325e+02
666           	5.433340e+02
667           	5.433356e+02
668           	5.433371e+02
669           	5.433386e+02
670           	5.433401e+02
671           	5.433415e+02
672           	5.433430e+02
673           	5.433444e+02
674           	5.433459e+02
675           	5.433473e+02
676           	5.433487e+02
677           	5.433500e+02
678           	5.433514e+02
679           	5.433528e+02
680           	5.433541e+02
681           	5.433554e+02
682           	5.433567e+02
683           	5.433580e+02
684           	5.433593e+02
685           	5.433606e+02
686           	5.433619e+02
687           	5.433631e+02
688           	5.433644e+02
689           	5.433656e+02
690           	5.433668e+02
691           	5.433681e+02
692           	5.433693e+02
693           	5.433705e+02
694           	5.433716e+02
695           	5.433728e+02
696           	5.433740e+02
697           	5.433752e+02
698           	5.433763e+02
699           	5.433774e+02
700           	5.433786e+02
701           	5.433797e+02
702           	5.433808e+02
703           	5.433819e+02
704           	5.433830e+02
705           	5.433841e+02
706           	5.433852e+02
707           	5.433863e+02
708           	5.433873e+02
709           	5.433884e+02
710           	5.433895e+02
711           	5.433905e+02
712           	5.433915e+02
713           	5.433926e+02
714           	5.433936e+02
715           	5.433946e+02
716           	5.433956e+02
717           	5.433966e+02
718           	5.433976e+02
719           	5.433986e+02
720           	5.433995e+02
721           	5.434005e+02
722           	5.434015e+02
723           	5.434024e+02
724           	5.434034e+02
725           	5.434043e+02
726           	5.434052e+02
727           	5.434061e+02
728           	5.434070e+02
729           	5.434079e+02
730           	5.434088e+02
731           	5.434097e+02
732           	5.434106e+02
733           	5.434115e+02
734           	5.434123e+02
735           	5.434132e+02
736           	5.434140e+02
737           	5.434149e+02
738           	5.434157e+02
739           	5.434165e+02
740           	5.434173e+02
741           	5.434182e+02
742           	5.434190e+02
743           	5.434197e+02
744           	5.434205e+02
745           	5.434213e+02
746           	5.434221e+02
747           	5.434228e+02
748           	5.434236e+02
749           	5.434243e+02
750           	5.434251e+02
751           	5.434258e+02
752           	5.434265e+02
753           	5.434272e+02
754           	5.434279e+02
755           	5.434286e+02
756           	5.434293e+02
757           	5.434300e+02
758           	5.434306e+02
759           	5.434313e+02
760           	5.434319e+02
761           	5.434326e+02
762           	5.434332e+02
763           	5.434338e+02
764           	5.434345e+02
765           	5.434351e+02
766           	5.434357e+02
767           	5.434363e+02
768           	5.434369e+02
769           	5.434375e+02
770           	5.434380e+02
771           	5.434386e+02
772           	5.434392e+02
773           	5.434397e+02
774           	5.434403e+02
775           	5.434408e+02
776           	5.434413e+02
777           	5.434419e+02
778           	5.434424e+02
779           	5.434429e+02
780           	5.434434e+02
781           	5.434439e+02
782           	5.434444e+02
783           	5.434449e+02
784           	5.434454e+02
785           	5.434459e+02
786           	5.434464e+02
787           	5.434469e+02
788           	5.434473e+02
789           	5.434478e+02
790           	5.434483e+02
791           	5.434487e+02
792           	5.434492e+02
793           	5.434496e+02
794           	5.434501e+02
795           	5.434505e+02
796           	5.434510e+02
797           	5.434514e+02
798           	5.434518e+02
799           	5.434522e+02
800           	5.434527e+02
801           	5.434531e+02
802           	5.434535e+02
803           	5.434539e+02
804           	5.434543e+02
805           	5.434547e+02
806           	5.434551e+02
807           	5.434555e+02
808           	5.434558e+02
809           	5.434562e+02
810           	5.434566e+02
811           	5.434569e+02
812           	5.434573e+02
813           	5.434577e+02
814           	5.434580e+02
815           	5.434584e+02
816           	5.434587e+02
817           	5.434591e+02
818           	5.434594e+02
819           	5.434598e+02
820           	5.434601e+02
821           	5.434605e+02
822           	5.434608e+02
823           	5.434612e+02
824           	5.434615e+02
825           	5.434618e+02
826           	5.434622e+02
827           	5.434625e+02
828           	5.434629e+02
829           	5.434632e+02
830           	5.434636e+02
831           	5.434639e+02
832           	5.434642e+02
833           	5.434646e+02
834           	5.434649e+02
835           	5.434653e+02
836           	5.434656e+02
837           	5.434660e+02
838           	5.434663e+02
839           	5.434667e+02
840           	5.434670e+02
841           	5.434674e+02
842           	5.434677e+02
843           	5.434681e+02
844           	5.434684e+02
845           	5.434688e+02
846           	5.434691e+02
847           	5.434695e+02
848           	5.434698e+02
849           	5.434702e+02
850           	5.434706e+02
851           	5.434709e+02
852           	5.434713e+02
853           	5.434716e+02
854           	5.434720e+02
855           	5.434724e+02
856           	5.434727e+02
857           	5.434731e+02
858           	5.434734e+02
859           	5.434738e+02
860           	5.434742e+02
861           	5.434745e+02
862           	5.434749e+02
863           	5.434752e+02
864           	5.434756e+02
865           	5.434759e+02
866           	5.434763e+02
867           	5.434766e+02
868           	5.434770e+02
869           	5.434773e+02
870           	5.434777e+02
871           	5.434780e+02
872           	5.434783e+02
873           	5.434787e+02
874           	5.434790e+02
875           	5.434793e+02
876           	5.434797e+02
877           	5.434800e+02
878           	5.434803e+02
879           	5.434806e+02
880           	5.434809e+02
881           	5.434812e+02
882           	5.434816e+02
883           	5.434819e+02
884           	5.434822e+02
885           	5.434825e+02
886           	5.434828e+02
887           	5.434830e+02
888           	5.434833e+02
889           	5.434836e+02
890           	5.434839e+02
891           	5.434842e+02
892           	5.434845e+02
893           	5.434847e+02
894           	5.434850e+02
895           	5.434853e+02
896           	5.434855e+02
897           	5.434858e+02
898           	5.434861e+02
899           	5.434863e+02
900           	5.434866e+02
901           	5.434868e+02
902           	5.434871e+02
903           	5.434873e+02
904           	5.434876e+02
905           	5.434878e+02
906           	5.434880e+02
907           	5.434883e+02
908           	5.434885e+02
909           	5.434887e+02
910           	5.434890e+02
911           	5.434892e+02
912           	5.434894e+02
913           	5.434897e+02
914           	5.434899e+02
915           	5.434901e+02
916           	5.434903e+02
917           	5.434905e+02
918           	5.434907e+02
919           	5.434910e+02
920           	5.434912e+02
921           	5.434914e+02
922           	5.434916e+02
923           	5.434918e+02
924           	5.434920e+02
925           	5.434922e+02
926           	5.434924e+02
927           	5.434926e+02
928           	5.434928e+02
929           	5.434930e+02
930           	5.434932e+02
931           	5.434934e+02
932           	5.434936e+02
933           	5.434938e+02
934           	5.434940e+02
935           	5.434942e+02
936           	5.434944e+02
937           	5.434946e+02
938           	5.434947e+02
939           	5.434949e+02
940           	5.434951e+02
941           	5.434953e+02
942           	5.434955e+02
943           	5.434957e+02
944           	5.434959e+02
945           	5.434961e+02
946           	5.434962e+02
947           	5.434964e+02
948           	5.434966e+02
949           	5.434968e+02
950           	5.434970e+02
951           	5.434972e+02
952           	5.434973e+02
953           	5.434975e+02
954           	5.434977e+02
955           	5.434979e+02
956           	5.434981e+02
957           	5.434982e+02
958           	5.434984e+02
959           	5.434986e+02
960           	5.434988e+02
961           	5.434989e+02
962           	5.434991e+02
963           	5.434993e+02
964           	5.434995e+02
965           	5.434996e+02
966           	5.434998e+02
967           	5.435000e+02
968           	5.435002e+02
969           	5.435003e+02
970           	5.435005e+02
971           	5.435007e+02
972           	5.435009e+02
973           	5.435010e+02
974           	5.435012e+02
975           	5.435014e+02
976           	5.435015e+02
977           	5.435017e+02
978           	5.435019e+02
979           	5.435021e+02
980           	5.435022e+02
981           	5.435024e+02
982           	5.435026e+02
983           	5.435027e+02
984           	5.435029e+02
985           	5.435031e+02
986           	5.435032e+02
987           	5.435034e+02
988           	5.435036e+02
989           	5.435037e+02
990           	5.435039e+02
991           	5.435041e+02
992           	5.435042e+02
993           	5.435044e+02
994           	5.435046e+02
995           	5.435047e+02
996           	5.435049e+02
997           	5.435051e+02
998           	5.435052e+02
999           	5.435054e+02
1000          	5.435056e+02
1001          	5.435057e+02
1002          	5.435059e+02
1003          	5.435061e+02
1004          	5.435062e+02
1005          	5.435064e+02
1006          	5.435066e+02
1007          	5.435067e+02
1008          	5.435069e+02
1009          	5.435070e+02
1010          	5.435072e+02
1011          	5.435074e+02
1012          	5.435075e+02
1013          	5.435077e+02
1014          	5.435079e+02
1015          	5.435080e+02
1016          	5.435082e+02
1017          	5.435084e+02
1018          	5.435085e+02
1019          	5.435087e+02
1020          	5.435089e+02
1021          	5.435090e+02
1022          	5.435092e+02
1023          	5.435094e+02
1024          	5.435095e+02
1025          	5.435097e+02
1026          	5.435099e+02
1027          	5.435100e+02
1028          	5.435102e+02
1029          	5.435104e+02
1030          	5.435105e+02
1031          	5.435107e+02
1032          	5.435109e+02
1033          	5.435110e+02
1034          	5.435112e+02
1035          	5.435114e+02
1036          	5.435115e+02
1037          	5.435117e+02
1038          	5.435119e+02
1039          	5.435121e+02
1040          	5.435122e+02
1041          	5.435124e+02
1042          	5.435126e+02
1043          	5.435127e+02
1044          	5.435129e+02
1045          	5.435131e+02
1046          	5.435132e+02
1047          	5.435134e+02
1048          	5.435136e+02
1049          	5.435137e+02
1050          	5.435139e+02
1051          	5.435141e+02
1052          	5.435143e+02
1053          	5.435144e+02
1054          	5.435146e+02
1055          	5.435148e+02
1056          	5.435149e+02
1057          	5.435151e+02
1058          	5.435153e+02
1059          	5.435155e+02
1060          	5.435156e+02
1061          	5.435158e+02
1062          	5.435160e+02
1063          	5.435161e+02
1064          	5.435163e+02
1065          	5.435165e+02
1066          	5.435166e+02
1067          	5.435168e+02