# Region      : all 
# Cells       : 617
# Volume      : 1.000000e-06
# Time        	max(T)
0             	2.969000e+02
1             	3.143678e+02
2             	3.167611e+02
3             	3.194502e+02
4             	3.219620e+02
5             	3.243948e+02
6             	3.267662e+02
7             	3.290947e+02
8             	3.313903e+02
9             	3.336593e+02
10            	3.359058e+02
11            	3.381335e+02
12            	3.403429e+02
13            	3.425347e+02
14            	3.447098e+02
15            	3.468685e+02
16            	3.490114e+02
17            	3.511386e+02
18            	3.532504e+02
19            	3.553470e+02
20            	3.574286e+02
21            	3.594952e+02
22            	3.615471e+02
23            	3.635844e+02
24            	3.656072e+02
25            	3.676156e+02
26            	3.696098e+02
27            	3.715899e+02
28            	3.735559e+02
29            	3.755081e+02
30            	3.774465e+02
31            	3.793713e+02
32            	3.812823e+02
33            	3.831796e+02
34            	3.850631e+02
35            	3.869329e+02
36            	3.887890e+02
37            	3.906315e+02
38            	3.924607e+02
39            	3.942764e+02
40            	3.960788e+02
41            	3.978679e+02
42            	3.996437e+02
43            	4.014065e+02
44            	4.031562e+02
45            	4.048931e+02
46            	4.066172e+02
47            	4.083286e+02
48            	4.100274e+02
49            	4.117137e+02
50            	4.133876e+02
51            	4.150491e+02
52            	4.166985e+02
53            	4.183357e+02
54            	4.199609e+02
55            	4.215741e+02
56            	4.231754e+02
57            	4.247649e+02
58            	4.263428e+02
59            	4.279090e+02
60            	4.294637e+02
61            	4.310070e+02
62            	4.325391e+02
63            	4.340599e+02
64            	4.355696e+02
65            	4.370682e+02
66            	4.385560e+02
67            	4.400329e+02
68            	4.414990e+02
69            	4.429546e+02
70            	4.443995e+02
71            	4.458340e+02
72            	4.472581e+02
73            	4.486718e+02
74            	4.500753e+02
75            	4.514685e+02
76            	4.528517e+02
77            	4.542247e+02
78            	4.555877e+02
79            	4.569408e+02
80            	4.582840e+02
81            	4.596174e+02
82            	4.609412e+02
83            	4.622552e+02
84            	4.635597e+02
85            	4.648547e+02
86            	4.661403e+02
87            	4.674165e+02
88            	4.686837e+02
89            	4.699416e+02
90            	4.711904e+02
91            	4.724301e+02
92            	4.736608e+02
93            	4.748826e+02
94            	4.760956e+02
95            	4.772998e+02
96            	4.784952e+02
97            	4.796820e+02
98            	4.808601e+02
99            	4.820298e+02
100           	4.831910e+02
101           	4.843438e+02
102           	4.854882e+02
103           	4.866243e+02
104           	4.877523e+02
105           	4.888720e+02
106           	4.899836e+02
107           	4.910871e+02
108           	4.921826e+02
109           	4.932701e+02
110           	4.943497e+02
111           	4.954215e+02
112           	4.964855e+02
113           	4.975417e+02
114           	4.985902e+02
115           	4.996311e+02
116           	5.006644e+02
117           	5.016901e+02
118           	5.027082e+02
119           	5.037190e+02
120           	5.047223e+02
121           	5.057182e+02
122           	5.067069e+02
123           	5.076882e+02
124           	5.086624e+02
125           	5.096293e+02
126           	5.105892e+02
127           	5.115421e+02
128           	5.124879e+02
129           	5.134268e+02
130           	5.143588e+02
131           	5.152839e+02
132           	5.162023e+02
133           	5.171139e+02
134           	5.180188e+02
135           	5.189170e+02
136           	5.198086e+02
137           	5.206936e+02
138           	5.215721e+02
139           	5.224441e+02
140           	5.233096e+02
141           	5.241687e+02
142           	5.250215e+02
143           	5.258679e+02
144           	5.267081e+02
145           	5.275420e+02
146           	5.283697e+02
147           	5.291913e+02
148           	5.300068e+02
149           	5.308162e+02
150           	5.316196e+02
151           	5.324169e+02
152           	5.332084e+02
153           	5.339939e+02
154           	5.347736e+02
155           	5.355474e+02
156           	5.363155e+02
157           	5.370778e+02
158           	5.378345e+02
159           	5.385855e+02
160           	5.393309e+02
161           	5.400708e+02
162           	5.408051e+02
163           	5.415339e+02
164           	5.422573e+02
165           	5.429752e+02
166           	5.436879e+02
167           	5.443951e+02
168           	5.450971e+02
169           	5.457939e+02
170           	5.464854e+02
171           	5.471718e+02
172           	5.478530e+02
173           	5.485291e+02
174           	5.492002e+02
175           	5.498662e+02
176           	5.505273e+02
177           	5.511834e+02
178           	5.518346e+02
179           	5.524809e+02
180           	5.531224e+02
181           	5.537591e+02
182           	5.543910e+02
183           	5.550182e+02
184           	5.556406e+02
185           	5.562584e+02
186           	5.568716e+02
187           	5.574802e+02
188           	5.580841e+02
189           	5.586836e+02
190           	5.592785e+02
191           	5.598689e+02
192           	5.604549e+02
193           	5.610365e+02
194           	5.616137e+02
195           	5.621865e+02
196           	5.627550e+02
197           	5.633192e+02
198           	5.638791e+02
199           	5.644348e+02
200           	5.649863e+02
201           	5.655337e+02
202           	5.660769e+02
203           	5.666160e+02
204           	5.671510e+02
205           	5.676820e+02
206           	5.682090e+02
207           	5.687319e+02
208           	5.692510e+02
209           	5.697661e+02
210           	5.702773e+02
211           	5.707846e+02
212           	5.712881e+02
213           	5.717878e+02
214           	5.722837e+02
215           	5.727759e+02
216           	5.732643e+02
217           	5.737490e+02
218           	5.742301e+02
219           	5.747075e+02
220           	5.751814e+02
221           	5.756517e+02
222           	5.761184e+02
223           	5.765816e+02
224           	5.770414e+02
225           	5.774976e+02
226           	5.779505e+02
227           	5.783998e+02
228           	5.788458e+02
229           	5.792885e+02
230           	5.797277e+02
231           	5.801637e+02
232           	5.805964e+02
233           	5.810258e+02
234           	5.814520e+02
235           	5.818749e+02
236           	5.822946e+02
237           	5.827112e+02
238           	5.831247e+02
239           	5.835350e+02
240           	5.839422e+02
241           	5.843464e+02
242           	5.847475e+02
243           	5.851456e+02
244           	5.855406e+02
245           	5.859327e+02
246           	5.863218e+02
247           	5.867080e+02
248           	5.870913e+02
249           	5.874717e+02
250           	5.878492e+02
251           	5.882238e+02
252           	5.885956e+02
253           	5.889646e+02
254           	5.893308e+02
255           	5.896942e+02
256           	5.900548e+02
257           	5.904127e+02
258           	5.907679e+02
259           	5.911204e+02
260           	5.914702e+02
261           	5.918173e+02
262           	5.921618e+02
263           	5.925036e+02
264           	5.928429e+02
265           	5.931796e+02
266           	5.935136e+02
267           	5.938452e+02
268           	5.941742e+02
269           	5.945007e+02
270           	5.948247e+02
271           	5.951462e+02
272           	5.954653e+02
273           	5.957819e+02
274           	5.960961e+02
275           	5.964080e+02
276           	5.967174e+02
277           	5.970245e+02
278           	5.973292e+02
279           	5.976316e+02
280           	5.979317e+02
281           	5.982295e+02
282           	5.985250e+02
283           	5.988182e+02
284           	5.991092e+02
285           	5.993979e+02
286           	5.996844e+02
287           	5.999687e+02
288           	6.002508e+02
289           	6.005307e+02
290           	6.008085e+02
291           	6.010842e+02
292           	6.013577e+02
293           	6.016292e+02
294           	6.018986e+02
295           	6.021659e+02
296           	6.024311e+02
297           	6.026944e+02
298           	6.029556e+02
299           	6.032147e+02
300           	6.034719e+02
301           	6.037272e+02
302           	6.039804e+02
303           	6.042317e+02
304           	6.044811e+02
305           	6.047286e+02
306           	6.049742e+02
307           	6.052179e+02
308           	6.054597e+02
309           	6.056996e+02
310           	6.059378e+02
311           	6.061741e+02
312           	6.064086e+02
313           	6.066413e+02
314           	6.068722e+02
315           	6.071013e+02
316           	6.073287e+02
317           	6.075544e+02
318           	6.077783e+02
319           	6.080005e+02
320           	6.082210e+02
321           	6.084398e+02
322           	6.086570e+02
323           	6.088725e+02
324           	6.090863e+02
325           	6.092985e+02
326           	6.095091e+02
327           	6.097181e+02
328           	6.099255e+02
329           	6.101312e+02
330           	6.103355e+02
331           	6.105381e+02
332           	6.107392e+02
333           	6.109388e+02
334           	6.111368e+02
335           	6.113333e+02
336           	6.115283e+02
337           	6.117218e+02
338           	6.119139e+02
339           	6.121044e+02
340           	6.122935e+02
341           	6.124812e+02
342           	6.126674e+02
343           	6.128522e+02
344           	6.130355e+02
345           	6.132175e+02
346           	6.133981e+02
347           	6.135772e+02
348           	6.137551e+02
349           	6.139315e+02
350           	6.141066e+02
351           	6.142803e+02
352           	6.144527e+02
353           	6.146238e+02
354           	6.147936e+02
355           	6.149621e+02
356           	6.151293e+02
357           	6.152952e+02
358           	6.154598e+02
359           	6.156232e+02
360           	6.157853e+02
361           	6.159462e+02
362           	6.161058e+02
363           	6.162642e+02
364           	6.164214e+02
365           	6.165774e+02
366           	6.167322e+02
367           	6.168858e+02
368           	6.170382e+02
369           	6.171895e+02
370           	6.173396e+02
371           	6.174885e+02
372           	6.176363e+02
373           	6.177830e+02
374           	6.179285e+02
375           	6.180729e+02
376           	6.182162e+02
377           	6.183584e+02
378           	6.184995e+02
379           	6.186394e+02
380           	6.187783e+02
381           	6.189161e+02
382           	6.190529e+02
383           	6.191886e+02
384           	6.193232e+02
385           	6.194568e+02
386           	6.195893e+02
387           	6.197208e+02
388           	6.198513e+02
389           	6.199808e+02
390           	6.201093e+02
391           	6.202368e+02
392           	6.203633e+02
393           	6.204889e+02
394           	6.206135e+02
395           	6.207371e+02
396           	6.208597e+02
397           	6.209814e+02
398           	6.211022e+02
399           	6.212221e+02
400           	6.213410e+02
401           	6.214590e+02
402           	6.215761e+02
403           	6.216923e+02
404           	6.218077e+02
405           	6.219221e+02
406           	6.220357e+02
407           	6.221484e+02
408           	6.222603e+02
409           	6.223713e+02
410           	6.224814e+02
411           	6.225907e+02
412           	6.226992e+02
413           	6.228068e+02
414           	6.229136e+02
415           	6.230196e+02
416           	6.231247e+02
417           	6.232291e+02
418           	6.233326e+02
419           	6.234354e+02
420           	6.235373e+02
421           	6.236385e+02
422           	6.237389e+02
423           	6.238385e+02
424           	6.239374e+02
425           	6.240355e+02
426           	6.241329e+02
427           	6.242295e+02
428           	6.243254e+02
429           	6.244205e+02
430           	6.245149e+02
431           	6.246086e+02
432           	6.247016e+02
433           	6.247939e+02
434           	6.248854e+02
435           	6.249763e+02
436           	6.250664e+02
437           	6.251559e+02
438           	6.252447e+02
439           	6.253328e+02
440           	6.254202e+02
441           	6.255069e+02
442           	6.255930e+02
443           	6.256784e+02
444           	6.257632e+02
445           	6.258473e+02
446           	6.259307e+02
447           	6.260136e+02
448           	6.260957e+02
449           	6.261773e+02
450           	6.262582e+02
451           	6.263385e+02
452           	6.264182e+02
453           	6.264973e+02
454           	6.265758e+02
455           	6.266536e+02
456           	6.267309e+02
457           	6.268076e+02
458           	6.268836e+02
459           	6.269591e+02
460           	6.270341e+02
461           	6.271084e+02
462           	6.271822e+02
463           	6.272554e+02
464           	6.273280e+02
465           	6.274001e+02
466           	6.274716e+02
467           	6.275426e+02
468           	6.276130e+02
469           	6.276829e+02
470           	6.277522e+02
471           	6.278210e+02
472           	6.278893e+02
473           	6.279571e+02
474           	6.280243e+02
475           	6.280910e+02
476           	6.281573e+02
477           	6.282230e+02
478           	6.282881e+02
479           	6.283528e+02
480           	6.284170e+02
481           	6.284807e+02
482           	6.285440e+02
483           	6.286067e+02
484           	6.286689e+02
485           	6.287307e+02
486           	6.287920e+02
487           	6.288528e+02
488           	6.289132e+02
489           	6.289730e+02
490           	6.290325e+02
491           	6.290914e+02
492           	6.291499e+02
493           	6.292080e+02
494           	6.292656e+02
495           	6.293228e+02
496           	6.293795e+02
497           	6.294358e+02
498           	6.294916e+02
499           	6.295471e+02
500           	6.296021e+02
501           	6.296566e+02
502           	6.297108e+02
503           	6.297645e+02
504           	6.298178e+02
505           	6.298707e+02
506           	6.299232e+02
507           	6.299753e+02
508           	6.300270e+02
509           	6.300783e+02
510           	6.301292e+02
511           	6.301797e+02
512           	6.302298e+02
513           	6.302796e+02
514           	6.303289e+02
515           	6.303779e+02
516           	6.304265e+02
517           	6.304747e+02
518           	6.305225e+02
519           	6.305700e+02
520           	6.306171e+02
521           	6.306639e+02
522           	6.307103e+02
523           	6.307563e+02
524           	6.308020e+02
525           	6.308473e+02
526           	6.308922e+02
527           	6.309369e+02
528           	6.309811e+02
529           	6.310251e+02
530           	6.310687e+02
531           	6.311119e+02
532           	6.311549e+02
533           	6.311974e+02
534           	6.312397e+02
535           	6.312816e+02
536           	6.313233e+02
537           	6.313646e+02
538           	6.314055e+02
539           	6.314462e+02
540           	6.314865e+02
541           	6.315266e+02
542           	6.315663e+02
543           	6.316057e+02
544           	6.316448e+02
545           	6.316836e+02
546           	6.317221e+02
547           	6.317604e+02
548           	6.317983e+02
549           	6.318359e+02
550           	6.318733e+02
551           	6.319103e+02
552           	6.319471e+02
553           	6.319836e+02
554           	6.320198e+02
555           	6.320557e+02
556           	6.320913e+02
557           	6.321267e+02
558           	6.321618e+02
559           	6.321966e+02
560           	6.322312e+02
561           	6.322655e+02
562           	6.322995e+02
563           	6.323333e+02
564           	6.323668e+02
565           	6.324000e+02
566           	6.324330e+02
567           	6.324658e+02
568           	6.324982e+02
569           	6.325305e+02
570           	6.325625e+02
571           	6.325942e+02
572           	6.326257e+02
573           	6.326570e+02
574           	6.326880e+02
575           	6.327187e+02
576           	6.327493e+02
577           	6.327796e+02
578           	6.328097e+02
579           	6.328395e+02
580           	6.328691e+02
581           	6.328985e+02
582           	6.329276e+02
583           	6.329566e+02
584           	6.329853e+02
585           	6.330138e+02
586           	6.330420e+02
587           	6.330701e+02
588           	6.330979e+02
589           	6.331256e+02
590           	6.331530e+02
591           	6.331802e+02
592           	6.332072e+02
593           	6.332339e+02
594           	6.332605e+02
595           	6.332869e+02
596           	6.333131e+02
597           	6.333391e+02
598           	6.333648e+02
599           	6.333904e+02
600           	6.334158e+02
601           	6.334410e+02
602           	6.334660e+02
603           	6.334908e+02
604           	6.335154e+02
605           	6.335398e+02
606           	6.335641e+02
607           	6.335881e+02
608           	6.336120e+02
609           	6.336357e+02
610           	6.336592e+02
611           	6.336826e+02
612           	6.337057e+02
613           	6.337287e+02
614           	6.337515e+02
615           	6.337742e+02
616           	6.337967e+02
617           	6.338190e+02
618           	6.338412e+02
619           	6.338632e+02
620           	6.338850e+02
621           	6.339067e+02
622           	6.339282e+02
623           	6.339496e+02
624           	6.339709e+02
625           	6.339919e+02
626           	6.340129e+02
627           	6.340336e+02
628           	6.340543e+02
629           	6.340747e+02
630           	6.340950e+02
631           	6.341152e+02
632           	6.341352e+02
633           	6.341551e+02
634           	6.341749e+02
635           	6.341945e+02
636           	6.342140e+02
637           	6.342333e+02
638           	6.342525e+02
639           	6.342716e+02
640           	6.342905e+02
641           	6.343093e+02
642           	6.343280e+02
643           	6.343465e+02
644           	6.343649e+02
645           	6.343831e+02
646           	6.344012e+02
647           	6.344192e+02
648           	6.344370e+02
649           	6.344547e+02
650           	6.344723e+02
651           	6.344897e+02
652           	6.345070e+02
653           	6.345242e+02
654           	6.345413e+02
655           	6.345582e+02
656           	6.345750e+02
657           	6.345917e+02
658           	6.346082e+02
659           	6.346246e+02
660           	6.346409e+02
661           	6.346571e+02
662           	6.346732e+02
663           	6.346891e+02
664           	6.347050e+02
665           	6.347207e+02
666           	6.347362e+02
667           	6.347517e+02
668           	6.347671e+02
669           	6.347823e+02
670           	6.347974e+02
671           	6.348124e+02
672           	6.348273e+02
673           	6.348421e+02
674           	6.348568e+02
675           	6.348714e+02
676           	6.348858e+02
677           	6.349002e+02
678           	6.349144e+02
679           	6.349285e+02
680           	6.349426e+02
681           	6.349565e+02
682           	6.349703e+02
683           	6.349840e+02
684           	6.349976e+02
685           	6.350111e+02
686           	6.350245e+02
687           	6.350378e+02
688           	6.350510e+02
689           	6.350641e+02
690           	6.350771e+02
691           	6.350900e+02
692           	6.351028e+02
693           	6.351156e+02
694           	6.351282e+02
695           	6.351407e+02
696           	6.351531e+02
697           	6.351654e+02
698           	6.351777e+02
699           	6.351898e+02
700           	6.352019e+02
701           	6.352138e+02
702           	6.352257e+02
703           	6.352375e+02
704           	6.352492e+02
705           	6.352608e+02
706           	6.352723e+02
707           	6.352837e+02
708           	6.352950e+02
709           	6.353063e+02
710           	6.353174e+02
711           	6.353285e+02
712           	6.353395e+02
713           	6.353504e+02
714           	6.353613e+02
715           	6.353720e+02
716           	6.353827e+02
717           	6.353933e+02
718           	6.354038e+02
719           	6.354142e+02
720           	6.354245e+02
721           	6.354348e+02
722           	6.354450e+02
723           	6.354551e+02
724           	6.354651e+02
725           	6.354751e+02
726           	6.354849e+02
727           	6.354948e+02
728           	6.355045e+02
729           	6.355141e+02
730           	6.355237e+02
731           	6.355332e+02
732           	6.355427e+02
733           	6.355520e+02
734           	6.355613e+02
735           	6.355706e+02
736           	6.355797e+02
737           	6.355888e+02
738           	6.355978e+02
739           	6.356068e+02
740           	6.356156e+02
741           	6.356244e+02
742           	6.356332e+02
743           	6.356419e+02
744           	6.356505e+02
745           	6.356590e+02
746           	6.356675e+02
747           	6.356759e+02
748           	6.356843e+02
749           	6.356925e+02
750           	6.357008e+02
751           	6.357089e+02
752           	6.357170e+02
753           	6.357250e+02
754           	6.357330e+02
755           	6.357409e+02
756           	6.357488e+02
757           	6.357566e+02
758           	6.357643e+02
759           	6.357720e+02
760           	6.357796e+02
761           	6.357871e+02
762           	6.357946e+02
763           	6.358021e+02
764           	6.358094e+02
765           	6.358168e+02
766           	6.358240e+02
767           	6.358312e+02
768           	6.358384e+02
769           	6.358455e+02
770           	6.358525e+02
771           	6.358595e+02
772           	6.358665e+02
773           	6.358734e+02
774           	6.358802e+02
775           	6.358870e+02
776           	6.358937e+02
777           	6.359004e+02
778           	6.359070e+02
779           	6.359136e+02
780           	6.359201e+02
781           	6.359266e+02
782           	6.359330e+02
783           	6.359394e+02
784           	6.359457e+02
785           	6.359520e+02
786           	6.359582e+02
787           	6.359644e+02
788           	6.359706e+02
789           	6.359766e+02
790           	6.359827e+02
791           	6.359887e+02
792           	6.359946e+02
793           	6.360005e+02
794           	6.360064e+02
795           	6.360122e+02
796           	6.360180e+02
797           	6.360237e+02
798           	6.360294e+02
799           	6.360350e+02
800           	6.360406e+02
801           	6.360462e+02
802           	6.360517e+02
803           	6.360572e+02
804           	6.360626e+02
805           	6.360680e+02
806           	6.360733e+02
807           	6.360786e+02
808           	6.360839e+02
809           	6.360891e+02
810           	6.360943e+02
811           	6.360994e+02
812           	6.361045e+02
813           	6.361096e+02
814           	6.361146e+02
815           	6.361196e+02
816           	6.361246e+02
817           	6.361295e+02
818           	6.361343e+02
819           	6.361392e+02
820           	6.361440e+02
821           	6.361487e+02
822           	6.361534e+02
823           	6.361581e+02
824           	6.361628e+02
825           	6.361674e+02
826           	6.361720e+02
827           	6.361765e+02
828           	6.361810e+02
829           	6.361855e+02
830           	6.361899e+02
831           	6.361943e+02
832           	6.361987e+02
833           	6.362031e+02
834           	6.362074e+02
835           	6.362116e+02
836           	6.362159e+02
837           	6.362201e+02
838           	6.362242e+02
839           	6.362284e+02
840           	6.362325e+02
841           	6.362366e+02
842           	6.362406e+02
843           	6.362446e+02
844           	6.362486e+02
845           	6.362526e+02
846           	6.362565e+02
847           	6.362604e+02
848           	6.362643e+02
849           	6.362681e+02
850           	6.362719e+02
851           	6.362757e+02
852           	6.362794e+02
853           	6.362831e+02
854           	6.362868e+02
855           	6.362905e+02
856           	6.362941e+02
857           	6.362977e+02
858           	6.363013e+02
859           	6.363049e+02
860           	6.363084e+02
861           	6.363119e+02
862           	6.363153e+02
863           	6.363188e+02
864           	6.363222e+02
865           	6.363256e+02
866           	6.363289e+02
867           	6.363323e+02
868           	6.363356e+02
869           	6.363389e+02
870           	6.363421e+02
871           	6.363454e+02
872           	6.363486e+02
873           	6.363518e+02
874           	6.363549e+02
875           	6.363581e+02
876           	6.363612e+02
877           	6.363643e+02
878           	6.363673e+02
879           	6.363704e+02
880           	6.363734e+02
881           	6.363764e+02
882           	6.363794e+02
883           	6.363823e+02
884           	6.363852e+02
885           	6.363881e+02
886           	6.363910e+02
887           	6.363939e+02
888           	6.363967e+02
889           	6.363995e+02
890           	6.364023e+02
891           	6.364051e+02
892           	6.364078e+02
893           	6.364106e+02
894           	6.364133e+02
895           	6.364160e+02
896           	6.364186e+02
897           	6.364213e+02
898           	6.364239e+02
899           	6.364265e+02
900           	6.364291e+02
901           	6.364316e+02
902           	6.364342e+02
903           	6.364367e+02
904           	6.364392e+02
905           	6.364417e+02
906           	6.364442e+02
907           	6.364466e+02
908           	6.364491e+02
909           	6.364515e+02
910           	6.364539e+02
911           	6.364562e+02
912           	6.364586e+02
913           	6.364609e+02
914           	6.364633e+02
915           	6.364656e+02
916           	6.364678e+02
917           	6.364701e+02
918           	6.364724e+02
919           	6.364746e+02
920           	6.364768e+02
921           	6.364790e+02
922           	6.364812e+02
923           	6.364833e+02
924           	6.364855e+02
925           	6.364876e+02
926           	6.364897e+02
927           	6.364918e+02
928           	6.364939e+02
929           	6.364960e+02
930           	6.364980e+02
931           	6.365001e+02
932           	6.365021e+02
933           	6.365041e+02
934           	6.365061e+02
935           	6.365080e+02
936           	6.365100e+02
937           	6.365119e+02
938           	6.365139e+02
939           	6.365158e+02
940           	6.365177e+02
941           	6.365196e+02
942           	6.365214e+02
943           	6.365233e+02
944           	6.365251e+02
945           	6.365269e+02
946           	6.365288e+02
947           	6.365306e+02
948           	6.365323e+02
949           	6.365341e+02
950           	6.365359e+02
951           	6.365376e+02
952           	6.365393e+02
953           	6.365410e+02
954           	6.365428e+02
955           	6.365444e+02
956           	6.365461e+02
957           	6.365478e+02
958           	6.365494e+02
959           	6.365511e+02
960           	6.365527e+02
961           	6.365543e+02
962           	6.365559e+02
963           	6.365575e+02
964           	6.365591e+02
965           	6.365606e+02
966           	6.365622e+02
967           	6.365637e+02
968           	6.365653e+02
969           	6.365668e+02
970           	6.365683e+02
971           	6.365698e+02
972           	6.365712e+02
973           	6.365727e+02
974           	6.365742e+02
975           	6.365756e+02
976           	6.365771e+02
977           	6.365785e+02
978           	6.365799e+02
979           	6.365813e+02
980           	6.365827e+02
981           	6.365841e+02
982           	6.365854e+02
983           	6.365868e+02
984           	6.365881e+02
985           	6.365895e+02
986           	6.365908e+02
987           	6.365921e+02
988           	6.365934e+02
989           	6.365947e+02
990           	6.365960e+02
991           	6.365973e+02
992           	6.365986e+02
993           	6.365998e+02
994           	6.366011e+02
995           	6.366023e+02
996           	6.366036e+02
997           	6.366048e+02
998           	6.366060e+02
999           	6.366072e+02
1000          	6.366084e+02
1001          	6.366096e+02
1002          	6.366107e+02
1003          	6.366119e+02
1004          	6.366131e+02
1005          	6.366142e+02
1006          	6.366153e+02
1007          	6.366165e+02
1008          	6.366176e+02
1009          	6.366187e+02
1010          	6.366198e+02
1011          	6.366209e+02
1012          	6.366220e+02
1013          	6.366231e+02
1014          	6.366241e+02
1015          	6.366252e+02
1016          	6.366263e+02
1017          	6.366273e+02
1018          	6.366283e+02
1019          	6.366294e+02
1020          	6.366304e+02
1021          	6.366314e+02
1022          	6.366324e+02
1023          	6.366334e+02
1024          	6.366344e+02
1025          	6.366354e+02
1026          	6.366363e+02
1027          	6.366373e+02
1028          	6.366383e+02
1029          	6.366392e+02
1030          	6.366402e+02
1031          	6.366411e+02
1032          	6.366420e+02
1033          	6.366430e+02
1034          	6.366439e+02
1035          	6.366448e+02
1036          	6.366457e+02
1037          	6.366466e+02
1038          	6.366475e+02
1039          	6.366484e+02
1040          	6.366492e+02
1041          	6.366501e+02
1042          	6.366510e+02
1043          	6.366518e+02
1044          	6.366527e+02
1045          	6.366535e+02
1046          	6.366543e+02
1047          	6.366552e+02
1048          	6.366560e+02
1049          	6.366568e+02
1050          	6.366576e+02
1051          	6.366584e+02
1052          	6.366592e+02
1053          	6.366600e+02
1054          	6.366608e+02
1055          	6.366616e+02
1056          	6.366623e+02
1057          	6.366631e+02
1058          	6.366639e+02
1059          	6.366646e+02
1060          	6.366654e+02
1061          	6.366661e+02
1062          	6.366669e+02
1063          	6.366676e+02
1064          	6.366683e+02
1065          	6.366690e+02
1066          	6.366698e+02
1067          	6.366705e+02