# Region      : all 
# Cells       : 592
# Volume      : 1.000000e-06
# Time        	max(T)
0             	2.969000e+02
1             	3.145173e+02
2             	3.167187e+02
3             	3.193321e+02
4             	3.217855e+02
5             	3.241611e+02
6             	3.264859e+02
7             	3.287681e+02
8             	3.310180e+02
9             	3.332422e+02
10            	3.354445e+02
11            	3.376275e+02
12            	3.397927e+02
13            	3.419411e+02
14            	3.440734e+02
15            	3.461900e+02
16            	3.482915e+02
17            	3.503779e+02
18            	3.524496e+02
19            	3.545067e+02
20            	3.565494e+02
21            	3.585778e+02
22            	3.605921e+02
23            	3.625924e+02
24            	3.645788e+02
25            	3.665514e+02
26            	3.685104e+02
27            	3.704559e+02
28            	3.723879e+02
29            	3.743067e+02
30            	3.762123e+02
31            	3.781044e+02
32            	3.799832e+02
33            	3.818484e+02
34            	3.837006e+02
35            	3.855394e+02
36            	3.873647e+02
37            	3.891767e+02
38            	3.909751e+02
39            	3.927603e+02
40            	3.945322e+02
41            	3.962909e+02
42            	3.980366e+02
43            	3.997694e+02
44            	4.014893e+02
45            	4.031965e+02
46            	4.048910e+02
47            	4.065730e+02
48            	4.082425e+02
49            	4.098996e+02
50            	4.115445e+02
51            	4.131773e+02
52            	4.147980e+02
53            	4.164068e+02
54            	4.180036e+02
55            	4.195886e+02
56            	4.211619e+02
57            	4.227235e+02
58            	4.242735e+02
59            	4.258121e+02
60            	4.273394e+02
61            	4.288553e+02
62            	4.303600e+02
63            	4.318537e+02
64            	4.333363e+02
65            	4.348079e+02
66            	4.362688e+02
67            	4.377188e+02
68            	4.391581e+02
69            	4.405869e+02
70            	4.420051e+02
71            	4.434128e+02
72            	4.448102e+02
73            	4.461974e+02
74            	4.475743e+02
75            	4.489410e+02
76            	4.502977e+02
77            	4.516444e+02
78            	4.529812e+02
79            	4.543081e+02
80            	4.556252e+02
81            	4.569327e+02
82            	4.582304e+02
83            	4.595186e+02
84            	4.607973e+02
85            	4.620666e+02
86            	4.633265e+02
87            	4.645771e+02
88            	4.658185e+02
89            	4.670507e+02
90            	4.682738e+02
91            	4.694879e+02
92            	4.706930e+02
93            	4.718892e+02
94            	4.730766e+02
95            	4.742553e+02
96            	4.754252e+02
97            	4.765865e+02
98            	4.777392e+02
99            	4.788835e+02
100           	4.800192e+02
101           	4.811466e+02
102           	4.822656e+02
103           	4.833764e+02
104           	4.844789e+02
105           	4.855733e+02
106           	4.866595e+02
107           	4.877377e+02
108           	4.888079e+02
109           	4.898702e+02
110           	4.909246e+02
111           	4.919711e+02
112           	4.930099e+02
113           	4.940410e+02
114           	4.950644e+02
115           	4.960802e+02
116           	4.970885e+02
117           	4.980893e+02
118           	4.990826e+02
119           	5.000686e+02
120           	5.010473e+02
121           	5.020186e+02
122           	5.029828e+02
123           	5.039398e+02
124           	5.048896e+02
125           	5.058324e+02
126           	5.067682e+02
127           	5.076969e+02
128           	5.086188e+02
129           	5.095338e+02
130           	5.104419e+02
131           	5.113433e+02
132           	5.122379e+02
133           	5.131258e+02
134           	5.140071e+02
135           	5.148819e+02
136           	5.157501e+02
137           	5.166118e+02
138           	5.174670e+02
139           	5.183159e+02
140           	5.191584e+02
141           	5.199947e+02
142           	5.208246e+02
143           	5.216484e+02
144           	5.224660e+02
145           	5.232774e+02
146           	5.240828e+02
147           	5.248822e+02
148           	5.256755e+02
149           	5.264629e+02
150           	5.272444e+02
151           	5.280200e+02
152           	5.287898e+02
153           	5.295538e+02
154           	5.303121e+02
155           	5.310647e+02
156           	5.318116e+02
157           	5.325529e+02
158           	5.332886e+02
159           	5.340188e+02
160           	5.347434e+02
161           	5.354627e+02
162           	5.361765e+02
163           	5.368849e+02
164           	5.375880e+02
165           	5.382857e+02
166           	5.389782e+02
167           	5.396655e+02
168           	5.403476e+02
169           	5.410246e+02
170           	5.416964e+02
171           	5.423632e+02
172           	5.430249e+02
173           	5.436816e+02
174           	5.443334e+02
175           	5.449802e+02
176           	5.456222e+02
177           	5.462593e+02
178           	5.468916e+02
179           	5.475191e+02
180           	5.481418e+02
181           	5.487598e+02
182           	5.493732e+02
183           	5.499819e+02
184           	5.505859e+02
185           	5.511854e+02
186           	5.517803e+02
187           	5.523706e+02
188           	5.529565e+02
189           	5.535378e+02
190           	5.541148e+02
191           	5.546873e+02
192           	5.552555e+02
193           	5.558193e+02
194           	5.563788e+02
195           	5.569341e+02
196           	5.574851e+02
197           	5.580319e+02
198           	5.585744e+02
199           	5.591129e+02
200           	5.596472e+02
201           	5.601774e+02
202           	5.607036e+02
203           	5.612258e+02
204           	5.617439e+02
205           	5.622581e+02
206           	5.627684e+02
207           	5.632748e+02
208           	5.637773e+02
209           	5.642759e+02
210           	5.647707e+02
211           	5.652618e+02
212           	5.657490e+02
213           	5.662326e+02
214           	5.667124e+02
215           	5.671886e+02
216           	5.676611e+02
217           	5.681300e+02
218           	5.685953e+02
219           	5.690570e+02
220           	5.695152e+02
221           	5.699699e+02
222           	5.704211e+02
223           	5.708688e+02
224           	5.713131e+02
225           	5.717540e+02
226           	5.721915e+02
227           	5.726256e+02
228           	5.730564e+02
229           	5.734839e+02
230           	5.739081e+02
231           	5.743291e+02
232           	5.747468e+02
233           	5.751614e+02
234           	5.755727e+02
235           	5.759809e+02
236           	5.763860e+02
237           	5.767879e+02
238           	5.771868e+02
239           	5.775826e+02
240           	5.779753e+02
241           	5.783651e+02
242           	5.787518e+02
243           	5.791356e+02
244           	5.795164e+02
245           	5.798943e+02
246           	5.802693e+02
247           	5.806415e+02
248           	5.810107e+02
249           	5.813772e+02
250           	5.817408e+02
251           	5.821016e+02
252           	5.824597e+02
253           	5.828150e+02
254           	5.831675e+02
255           	5.835174e+02
256           	5.838646e+02
257           	5.842091e+02
258           	5.845509e+02
259           	5.848902e+02
260           	5.852268e+02
261           	5.855608e+02
262           	5.858923e+02
263           	5.862212e+02
264           	5.865476e+02
265           	5.868714e+02
266           	5.871928e+02
267           	5.875117e+02
268           	5.878282e+02
269           	5.881422e+02
270           	5.884537e+02
271           	5.887629e+02
272           	5.890697e+02
273           	5.893742e+02
274           	5.896763e+02
275           	5.899760e+02
276           	5.902735e+02
277           	5.905686e+02
278           	5.908615e+02
279           	5.911521e+02
280           	5.914405e+02
281           	5.917266e+02
282           	5.920105e+02
283           	5.922923e+02
284           	5.925719e+02
285           	5.928493e+02
286           	5.931245e+02
287           	5.933977e+02
288           	5.936687e+02
289           	5.939377e+02
290           	5.942046e+02
291           	5.944694e+02
292           	5.947322e+02
293           	5.949929e+02
294           	5.952517e+02
295           	5.955084e+02
296           	5.957632e+02
297           	5.960160e+02
298           	5.962669e+02
299           	5.965158e+02
300           	5.967628e+02
301           	5.970079e+02
302           	5.972511e+02
303           	5.974924e+02
304           	5.977319e+02
305           	5.979695e+02
306           	5.982053e+02
307           	5.984393e+02
308           	5.986714e+02
309           	5.989018e+02
310           	5.991304e+02
311           	5.993573e+02
312           	5.995824e+02
313           	5.998057e+02
314           	6.000274e+02
315           	6.002473e+02
316           	6.004655e+02
317           	6.006820e+02
318           	6.008969e+02
319           	6.011101e+02
320           	6.013217e+02
321           	6.015316e+02
322           	6.017399e+02
323           	6.019466e+02
324           	6.021517e+02
325           	6.023552e+02
326           	6.025572e+02
327           	6.027575e+02
328           	6.029564e+02
329           	6.031536e+02
330           	6.033494e+02
331           	6.035436e+02
332           	6.037364e+02
333           	6.039276e+02
334           	6.041174e+02
335           	6.043057e+02
336           	6.044926e+02
337           	6.046780e+02
338           	6.048619e+02
339           	6.050445e+02
340           	6.052256e+02
341           	6.054053e+02
342           	6.055836e+02
343           	6.057606e+02
344           	6.059362e+02
345           	6.061104e+02
346           	6.062833e+02
347           	6.064548e+02
348           	6.066250e+02
349           	6.067939e+02
350           	6.069615e+02
351           	6.071278e+02
352           	6.072928e+02
353           	6.074565e+02
354           	6.076189e+02
355           	6.077801e+02
356           	6.079401e+02
357           	6.080988e+02
358           	6.082563e+02
359           	6.084125e+02
360           	6.085676e+02
361           	6.087214e+02
362           	6.088741e+02
363           	6.090256e+02
364           	6.091759e+02
365           	6.093250e+02
366           	6.094730e+02
367           	6.096198e+02
368           	6.097655e+02
369           	6.099101e+02
370           	6.100536e+02
371           	6.101959e+02
372           	6.103372e+02
373           	6.104773e+02
374           	6.106164e+02
375           	6.107544e+02
376           	6.108913e+02
377           	6.110271e+02
378           	6.111619e+02
379           	6.112957e+02
380           	6.114284e+02
381           	6.115601e+02
382           	6.116907e+02
383           	6.118204e+02
384           	6.119491e+02
385           	6.120767e+02
386           	6.122034e+02
387           	6.123290e+02
388           	6.124537e+02
389           	6.125775e+02
390           	6.127002e+02
391           	6.128221e+02
392           	6.129429e+02
393           	6.130629e+02
394           	6.131819e+02
395           	6.133000e+02
396           	6.134171e+02
397           	6.135334e+02
398           	6.136488e+02
399           	6.137632e+02
400           	6.138768e+02
401           	6.139895e+02
402           	6.141013e+02
403           	6.142122e+02
404           	6.143223e+02
405           	6.144315e+02
406           	6.145399e+02
407           	6.146474e+02
408           	6.147541e+02
409           	6.148600e+02
410           	6.149650e+02
411           	6.150692e+02
412           	6.151727e+02
413           	6.152753e+02
414           	6.153771e+02
415           	6.154781e+02
416           	6.155783e+02
417           	6.156778e+02
418           	6.157764e+02
419           	6.158744e+02
420           	6.159715e+02
421           	6.160679e+02
422           	6.161635e+02
423           	6.162584e+02
424           	6.163526e+02
425           	6.164460e+02
426           	6.165387e+02
427           	6.166307e+02
428           	6.167219e+02
429           	6.168124e+02
430           	6.169023e+02
431           	6.169914e+02
432           	6.170799e+02
433           	6.171676e+02
434           	6.172547e+02
435           	6.173411e+02
436           	6.174268e+02
437           	6.175119e+02
438           	6.175962e+02
439           	6.176800e+02
440           	6.177631e+02
441           	6.178455e+02
442           	6.179273e+02
443           	6.180085e+02
444           	6.180890e+02
445           	6.181689e+02
446           	6.182482e+02
447           	6.183269e+02
448           	6.184050e+02
449           	6.184824e+02
450           	6.185593e+02
451           	6.186355e+02
452           	6.187112e+02
453           	6.187863e+02
454           	6.188608e+02
455           	6.189347e+02
456           	6.190080e+02
457           	6.190808e+02
458           	6.191530e+02
459           	6.192246e+02
460           	6.192957e+02
461           	6.193662e+02
462           	6.194362e+02
463           	6.195056e+02
464           	6.195745e+02
465           	6.196429e+02
466           	6.197107e+02
467           	6.197780e+02
468           	6.198448e+02
469           	6.199110e+02
470           	6.199768e+02
471           	6.200420e+02
472           	6.201067e+02
473           	6.201709e+02
474           	6.202347e+02
475           	6.202979e+02
476           	6.203606e+02
477           	6.204229e+02
478           	6.204846e+02
479           	6.205459e+02
480           	6.206067e+02
481           	6.206670e+02
482           	6.207269e+02
483           	6.207863e+02
484           	6.208452e+02
485           	6.209037e+02
486           	6.209617e+02
487           	6.210192e+02
488           	6.210764e+02
489           	6.211330e+02
490           	6.211893e+02
491           	6.212451e+02
492           	6.213004e+02
493           	6.213554e+02
494           	6.214099e+02
495           	6.214639e+02
496           	6.215176e+02
497           	6.215708e+02
498           	6.216237e+02
499           	6.216761e+02
500           	6.217281e+02
501           	6.217797e+02
502           	6.218309e+02
503           	6.218817e+02
504           	6.219321e+02
505           	6.219821e+02
506           	6.220317e+02
507           	6.220810e+02
508           	6.221298e+02
509           	6.221783e+02
510           	6.222264e+02
511           	6.222741e+02
512           	6.223215e+02
513           	6.223684e+02
514           	6.224151e+02
515           	6.224613e+02
516           	6.225072e+02
517           	6.225528e+02
518           	6.225979e+02
519           	6.226428e+02
520           	6.226872e+02
521           	6.227314e+02
522           	6.227752e+02
523           	6.228186e+02
524           	6.228617e+02
525           	6.229045e+02
526           	6.229470e+02
527           	6.229891e+02
528           	6.230309e+02
529           	6.230723e+02
530           	6.231135e+02
531           	6.231543e+02
532           	6.231948e+02
533           	6.232350e+02
534           	6.232748e+02
535           	6.233144e+02
536           	6.233537e+02
537           	6.233926e+02
538           	6.234312e+02
539           	6.234696e+02
540           	6.235076e+02
541           	6.235454e+02
542           	6.235828e+02
543           	6.236200e+02
544           	6.236569e+02
545           	6.236935e+02
546           	6.237298e+02
547           	6.237658e+02
548           	6.238015e+02
549           	6.238370e+02
550           	6.238722e+02
551           	6.239071e+02
552           	6.239417e+02
553           	6.239761e+02
554           	6.240102e+02
555           	6.240440e+02
556           	6.240776e+02
557           	6.241109e+02
558           	6.241439e+02
559           	6.241767e+02
560           	6.242093e+02
561           	6.242416e+02
562           	6.242736e+02
563           	6.243054e+02
564           	6.243369e+02
565           	6.243682e+02
566           	6.243992e+02
567           	6.244300e+02
568           	6.244606e+02
569           	6.244909e+02
570           	6.245210e+02
571           	6.245509e+02
572           	6.245805e+02
573           	6.246099e+02
574           	6.246390e+02
575           	6.246680e+02
576           	6.246967e+02
577           	6.247252e+02
578           	6.247534e+02
579           	6.247815e+02
580           	6.248093e+02
581           	6.248369e+02
582           	6.248643e+02
583           	6.248915e+02
584           	6.249184e+02
585           	6.249452e+02
586           	6.249717e+02
587           	6.249981e+02
588           	6.250242e+02
589           	6.250501e+02
590           	6.250759e+02
591           	6.251014e+02
592           	6.251267e+02
593           	6.251519e+02
594           	6.251768e+02
595           	6.252015e+02
596           	6.252261e+02
597           	6.252504e+02
598           	6.252746e+02
599           	6.252986e+02
600           	6.253224e+02
601           	6.253460e+02
602           	6.253694e+02
603           	6.253926e+02
604           	6.254157e+02
605           	6.254386e+02
606           	6.254613e+02
607           	6.254838e+02
608           	6.255061e+02
609           	6.255283e+02
610           	6.255503e+02
611           	6.255721e+02
612           	6.255938e+02
613           	6.256153e+02
614           	6.256366e+02
615           	6.256578e+02
616           	6.256787e+02
617           	6.256996e+02
618           	6.257202e+02
619           	6.257407e+02
620           	6.257611e+02
621           	6.257813e+02
622           	6.258013e+02
623           	6.258212e+02
624           	6.258409e+02
625           	6.258604e+02
626           	6.258798e+02
627           	6.258991e+02
628           	6.259182e+02
629           	6.259372e+02
630           	6.259560e+02
631           	6.259746e+02
632           	6.259931e+02
633           	6.260115e+02
634           	6.260298e+02
635           	6.260478e+02
636           	6.260658e+02
637           	6.260836e+02
638           	6.261013e+02
639           	6.261188e+02
640           	6.261362e+02
641           	6.261534e+02
642           	6.261706e+02
643           	6.261876e+02
644           	6.262044e+02
645           	6.262211e+02
646           	6.262377e+02
647           	6.262542e+02
648           	6.262705e+02
649           	6.262867e+02
650           	6.263028e+02
651           	6.263188e+02
652           	6.263346e+02
653           	6.263503e+02
654           	6.263659e+02
655           	6.263814e+02
656           	6.263967e+02
657           	6.264120e+02
658           	6.264271e+02
659           	6.264420e+02
660           	6.264569e+02
661           	6.264717e+02
662           	6.264863e+02
663           	6.265008e+02
664           	6.265153e+02
665           	6.265296e+02
666           	6.265437e+02
667           	6.265578e+02
668           	6.265718e+02
669           	6.265857e+02
670           	6.265994e+02
671           	6.266131e+02
672           	6.266266e+02
673           	6.266400e+02
674           	6.266534e+02
675           	6.266666e+02
676           	6.266797e+02
677           	6.266927e+02
678           	6.267056e+02
679           	6.267184e+02
680           	6.267312e+02
681           	6.267438e+02
682           	6.267563e+02
683           	6.267687e+02
684           	6.267810e+02
685           	6.267933e+02
686           	6.268054e+02
687           	6.268174e+02
688           	6.268294e+02
689           	6.268412e+02
690           	6.268530e+02
691           	6.268647e+02
692           	6.268762e+02
693           	6.268877e+02
694           	6.268991e+02
695           	6.269104e+02
696           	6.269217e+02
697           	6.269328e+02
698           	6.269438e+02
699           	6.269548e+02
700           	6.269657e+02
701           	6.269764e+02
702           	6.269872e+02
703           	6.269978e+02
704           	6.270083e+02
705           	6.270188e+02
706           	6.270291e+02
707           	6.270394e+02
708           	6.270496e+02
709           	6.270598e+02
710           	6.270698e+02
711           	6.270798e+02
712           	6.270897e+02
713           	6.270995e+02
714           	6.271093e+02
715           	6.271189e+02
716           	6.271285e+02
717           	6.271381e+02
718           	6.271475e+02
719           	6.271569e+02
720           	6.271662e+02
721           	6.271754e+02
722           	6.271845e+02
723           	6.271936e+02
724           	6.272026e+02
725           	6.272116e+02
726           	6.272204e+02
727           	6.272292e+02
728           	6.272380e+02
729           	6.272466e+02
730           	6.272552e+02
731           	6.272638e+02
732           	6.272722e+02
733           	6.272806e+02
734           	6.272890e+02
735           	6.272972e+02
736           	6.273054e+02
737           	6.273136e+02
738           	6.273216e+02
739           	6.273297e+02
740           	6.273376e+02
741           	6.273455e+02
742           	6.273533e+02
743           	6.273611e+02
744           	6.273688e+02
745           	6.273764e+02
746           	6.273840e+02
747           	6.273915e+02
748           	6.273990e+02
749           	6.274064e+02
750           	6.274138e+02
751           	6.274211e+02
752           	6.274283e+02
753           	6.274355e+02
754           	6.274426e+02
755           	6.274497e+02
756           	6.274567e+02
757           	6.274636e+02
758           	6.274705e+02
759           	6.274774e+02
760           	6.274842e+02
761           	6.274909e+02
762           	6.274976e+02
763           	6.275043e+02
764           	6.275109e+02
765           	6.275174e+02
766           	6.275239e+02
767           	6.275303e+02
768           	6.275367e+02
769           	6.275430e+02
770           	6.275493e+02
771           	6.275555e+02
772           	6.275617e+02
773           	6.275679e+02
774           	6.275740e+02
775           	6.275800e+02
776           	6.275860e+02
777           	6.275920e+02
778           	6.275979e+02
779           	6.276037e+02
780           	6.276095e+02
781           	6.276153e+02
782           	6.276210e+02
783           	6.276267e+02
784           	6.276323e+02
785           	6.276379e+02
786           	6.276435e+02
787           	6.276490e+02
788           	6.276544e+02
789           	6.276598e+02
790           	6.276652e+02
791           	6.276705e+02
792           	6.276758e+02
793           	6.276811e+02
794           	6.276863e+02
795           	6.276914e+02
796           	6.276966e+02
797           	6.277017e+02
798           	6.277067e+02
799           	6.277117e+02
800           	6.277167e+02
801           	6.277216e+02
802           	6.277265e+02
803           	6.277314e+02
804           	6.277362e+02
805           	6.277409e+02
806           	6.277457e+02
807           	6.277504e+02
808           	6.277551e+02
809           	6.277597e+02
810           	6.277643e+02
811           	6.277688e+02
812           	6.277734e+02
813           	6.277779e+02
814           	6.277823e+02
815           	6.277867e+02
816           	6.277911e+02
817           	6.277955e+02
818           	6.277998e+02
819           	6.278041e+02
820           	6.278083e+02
821           	6.278125e+02
822           	6.278167e+02
823           	6.278208e+02
824           	6.278250e+02
825           	6.278290e+02
826           	6.278331e+02
827           	6.278371e+02
828           	6.278411e+02
829           	6.278451e+02
830           	6.278490e+02
831           	6.278529e+02
832           	6.278568e+02
833           	6.278606e+02
834           	6.278644e+02
835           	6.278682e+02
836           	6.278719e+02
837           	6.278757e+02
838           	6.278793e+02
839           	6.278830e+02
840           	6.278866e+02
841           	6.278902e+02
842           	6.278938e+02
843           	6.278974e+02
844           	6.279009e+02
845           	6.279044e+02
846           	6.279078e+02
847           	6.279113e+02
848           	6.279147e+02
849           	6.279181e+02
850           	6.279214e+02
851           	6.279248e+02
852           	6.279281e+02
853           	6.279314e+02
854           	6.279346e+02
855           	6.279378e+02
856           	6.279410e+02
857           	6.279442e+02
858           	6.279474e+02
859           	6.279505e+02
860           	6.279536e+02
861           	6.279567e+02
862           	6.279598e+02
863           	6.279628e+02
864           	6.279658e+02
865           	6.279688e+02
866           	6.279717e+02
867           	6.279747e+02
868           	6.279776e+02
869           	6.279805e+02
870           	6.279834e+02
871           	6.279862e+02
872           	6.279890e+02
873           	6.279918e+02
874           	6.279946e+02
875           	6.279974e+02
876           	6.280001e+02
877           	6.280028e+02
878           	6.280055e+02
879           	6.280082e+02
880           	6.280109e+02
881           	6.280135e+02
882           	6.280161e+02
883           	6.280187e+02
884           	6.280213e+02
885           	6.280238e+02
886           	6.280264e+02
887           	6.280289e+02
888           	6.280314e+02
889           	6.280339e+02
890           	6.280363e+02
891           	6.280388e+02
892           	6.280412e+02
893           	6.280436e+02
894           	6.280459e+02
895           	6.280483e+02
896           	6.280506e+02
897           	6.280530e+02
898           	6.280553e+02
899           	6.280576e+02
900           	6.280598e+02
901           	6.280621e+02
902           	6.280643e+02
903           	6.280665e+02
904           	6.280687e+02
905           	6.280709e+02
906           	6.280731e+02
907           	6.280752e+02
908           	6.280774e+02
909           	6.280795e+02
910           	6.280816e+02
911           	6.280837e+02
912           	6.280857e+02
913           	6.280878e+02
914           	6.280898e+02
915           	6.280918e+02
916           	6.280938e+02
917           	6.280958e+02
918           	6.280978e+02
919           	6.280998e+02
920           	6.281017e+02
921           	6.281036e+02
922           	6.281055e+02
923           	6.281074e+02
924           	6.281093e+02
925           	6.281112e+02
926           	6.281130e+02
927           	6.281149e+02
928           	6.281167e+02
929           	6.281185e+02
930           	6.281203e+02
931           	6.281221e+02
932           	6.281238e+02
933           	6.281256e+02
934           	6.281273e+02
935           	6.281291e+02
936           	6.281308e+02
937           	6.281325e+02
938           	6.281342e+02
939           	6.281358e+02
940           	6.281375e+02
941           	6.281391e+02
942           	6.281408e+02
943           	6.281424e+02
944           	6.281440e+02
945           	6.281456e+02
946           	6.281472e+02
947           	6.281488e+02
948           	6.281503e+02
949           	6.281519e+02
950           	6.281534e+02
951           	6.281549e+02
952           	6.281564e+02
953           	6.281579e+02
954           	6.281594e+02
955           	6.281609e+02
956           	6.281624e+02
957           	6.281638e+02
958           	6.281652e+02
959           	6.281667e+02
960           	6.281681e+02
961           	6.281695e+02
962           	6.281709e+02
963           	6.281723e+02
964           	6.281737e+02
965           	6.281750e+02
966           	6.281764e+02
967           	6.281777e+02
968           	6.281791e+02
969           	6.281804e+02
970           	6.281817e+02
971           	6.281830e+02
972           	6.281843e+02
973           	6.281856e+02
974           	6.281868e+02
975           	6.281881e+02
976           	6.281894e+02
977           	6.281906e+02
978           	6.281918e+02
979           	6.281930e+02
980           	6.281943e+02
981           	6.281955e+02
982           	6.281967e+02
983           	6.281978e+02
984           	6.281990e+02
985           	6.282002e+02
986           	6.282013e+02
987           	6.282025e+02
988           	6.282036e+02
989           	6.282048e+02
990           	6.282059e+02
991           	6.282070e+02
992           	6.282081e+02
993           	6.282092e+02
994           	6.282103e+02
995           	6.282114e+02
996           	6.282124e+02
997           	6.282135e+02
998           	6.282145e+02
999           	6.282156e+02
1000          	6.282166e+02
1001          	6.282177e+02
1002          	6.282187e+02
1003          	6.282197e+02
1004          	6.282207e+02
1005          	6.282217e+02
1006          	6.282227e+02
1007          	6.282237e+02
1008          	6.282246e+02
1009          	6.282256e+02
1010          	6.282266e+02
1011          	6.282275e+02
1012          	6.282285e+02
1013          	6.282294e+02
1014          	6.282303e+02
1015          	6.282313e+02
1016          	6.282322e+02
1017          	6.282331e+02
1018          	6.282340e+02
1019          	6.282349e+02
1020          	6.282358e+02
1021          	6.282366e+02
1022          	6.282375e+02
1023          	6.282384e+02
1024          	6.282392e+02
1025          	6.282401e+02
1026          	6.282409e+02
1027          	6.282418e+02
1028          	6.282426e+02
1029          	6.282434e+02
1030          	6.282443e+02
1031          	6.282451e+02
1032          	6.282459e+02
1033          	6.282467e+02
1034          	6.282475e+02
1035          	6.282483e+02
1036          	6.282490e+02
1037          	6.282498e+02
1038          	6.282506e+02
1039          	6.282514e+02
1040          	6.282521e+02
1041          	6.282529e+02
1042          	6.282536e+02
1043          	6.282544e+02
1044          	6.282551e+02
1045          	6.282558e+02
1046          	6.282565e+02
1047          	6.282573e+02
1048          	6.282580e+02
1049          	6.282587e+02
1050          	6.282594e+02
1051          	6.282601e+02
1052          	6.282608e+02
1053          	6.282614e+02
1054          	6.282621e+02
1055          	6.282628e+02
1056          	6.282635e+02
1057          	6.282641e+02
1058          	6.282648e+02
1059          	6.282654e+02
1060          	6.282661e+02
1061          	6.282667e+02
1062          	6.282674e+02
1063          	6.282680e+02
1064          	6.282686e+02
1065          	6.282693e+02
1066          	6.282699e+02
1067          	6.282705e+02