# Region      : all 
# Cells       : 2668
# Volume      : 4.095121e-06
# Time        	max(T)
0             	2.969000e+02
1             	2.969000e+02
2             	2.997118e+02
3             	3.021061e+02
4             	3.044846e+02
5             	3.068504e+02
6             	3.091967e+02
7             	3.115238e+02
8             	3.138313e+02
9             	3.161190e+02
10            	3.183868e+02
11            	3.206348e+02
12            	3.228632e+02
13            	3.250720e+02
14            	3.272616e+02
15            	3.294322e+02
16            	3.315838e+02
17            	3.337168e+02
18            	3.358313e+02
19            	3.379277e+02
20            	3.400060e+02
21            	3.420664e+02
22            	3.441091e+02
23            	3.461344e+02
24            	3.481423e+02
25            	3.501331e+02
26            	3.521069e+02
27            	3.540638e+02
28            	3.560039e+02
29            	3.579274e+02
30            	3.598344e+02
31            	3.617247e+02
32            	3.635985e+02
33            	3.654557e+02
34            	3.672963e+02
35            	3.691206e+02
36            	3.709286e+02
37            	3.727204e+02
38            	3.744960e+02
39            	3.762557e+02
40            	3.779995e+02
41            	3.797275e+02
42            	3.814400e+02
43            	3.831370e+02
44            	3.848187e+02
45            	3.864851e+02
46            	3.881365e+02
47            	3.897728e+02
48            	3.913943e+02
49            	3.930012e+02
50            	3.945934e+02
51            	3.961712e+02
52            	3.977347e+02
53            	3.992839e+02
54            	4.008191e+02
55            	4.023403e+02
56            	4.038478e+02
57            	4.053415e+02
58            	4.068216e+02
59            	4.082882e+02
60            	4.097415e+02
61            	4.111815e+02
62            	4.126084e+02
63            	4.140224e+02
64            	4.154235e+02
65            	4.168118e+02
66            	4.181874e+02
67            	4.195505e+02
68            	4.209012e+02
69            	4.222396e+02
70            	4.235659e+02
71            	4.248801e+02
72            	4.261823e+02
73            	4.274727e+02
74            	4.287516e+02
75            	4.300233e+02
76            	4.312833e+02
77            	4.325319e+02
78            	4.337690e+02
79            	4.349949e+02
80            	4.362096e+02
81            	4.374131e+02
82            	4.386057e+02
83            	4.397874e+02
84            	4.409582e+02
85            	4.421184e+02
86            	4.432679e+02
87            	4.444069e+02
88            	4.455356e+02
89            	4.466539e+02
90            	4.477620e+02
91            	4.488599e+02
92            	4.499478e+02
93            	4.510258e+02
94            	4.520939e+02
95            	4.531522e+02
96            	4.542008e+02
97            	4.552397e+02
98            	4.562692e+02
99            	4.572892e+02
100           	4.582998e+02
101           	4.593012e+02
102           	4.602933e+02
103           	4.612764e+02
104           	4.622504e+02
105           	4.632154e+02
106           	4.641716e+02
107           	4.651190e+02
108           	4.660577e+02
109           	4.669877e+02
110           	4.679092e+02
111           	4.688221e+02
112           	4.697267e+02
113           	4.706229e+02
114           	4.715109e+02
115           	4.723907e+02
116           	4.732623e+02
117           	4.741260e+02
118           	4.749816e+02
119           	4.758293e+02
120           	4.766692e+02
121           	4.775013e+02
122           	4.783257e+02
123           	4.791425e+02
124           	4.799517e+02
125           	4.807533e+02
126           	4.815476e+02
127           	4.823344e+02
128           	4.831139e+02
129           	4.838862e+02
130           	4.846513e+02
131           	4.854092e+02
132           	4.861601e+02
133           	4.869040e+02
134           	4.876410e+02
135           	4.883711e+02
136           	4.890943e+02
137           	4.898108e+02
138           	4.905207e+02
139           	4.912238e+02
140           	4.919204e+02
141           	4.926105e+02
142           	4.932942e+02
143           	4.939714e+02
144           	4.946423e+02
145           	4.953069e+02
146           	4.959654e+02
147           	4.966176e+02
148           	4.972637e+02
149           	4.979038e+02
150           	4.985379e+02
151           	4.991661e+02
152           	4.997884e+02
153           	5.004048e+02
154           	5.010155e+02
155           	5.016204e+02
156           	5.022196e+02
157           	5.028132e+02
158           	5.034013e+02
159           	5.039838e+02
160           	5.045609e+02
161           	5.051325e+02
162           	5.056987e+02
163           	5.062596e+02
164           	5.068153e+02
165           	5.073657e+02
166           	5.079110e+02
167           	5.084511e+02
168           	5.089862e+02
169           	5.095162e+02
170           	5.100412e+02
171           	5.105613e+02
172           	5.110765e+02
173           	5.115868e+02
174           	5.120923e+02
175           	5.125931e+02
176           	5.130891e+02
177           	5.135805e+02
178           	5.140672e+02
179           	5.145494e+02
180           	5.150270e+02
181           	5.155001e+02
182           	5.159687e+02
183           	5.164330e+02
184           	5.168928e+02
185           	5.173483e+02
186           	5.177995e+02
187           	5.182465e+02
188           	5.186892e+02
189           	5.191278e+02
190           	5.195622e+02
191           	5.199926e+02
192           	5.204189e+02
193           	5.208411e+02
194           	5.212594e+02
195           	5.216738e+02
196           	5.220842e+02
197           	5.224908e+02
198           	5.228935e+02
199           	5.232925e+02
200           	5.236876e+02
201           	5.240791e+02
202           	5.244669e+02
203           	5.248510e+02
204           	5.252314e+02
205           	5.256083e+02
206           	5.259816e+02
207           	5.263514e+02
208           	5.267177e+02
209           	5.270805e+02
210           	5.274398e+02
211           	5.277958e+02
212           	5.281484e+02
213           	5.284976e+02
214           	5.288435e+02
215           	5.291861e+02
216           	5.295255e+02
217           	5.298616e+02
218           	5.301946e+02
219           	5.305244e+02
220           	5.308511e+02
221           	5.311747e+02
222           	5.314952e+02
223           	5.318127e+02
224           	5.321272e+02
225           	5.324387e+02
226           	5.327472e+02
227           	5.330528e+02
228           	5.333555e+02
229           	5.336553e+02
230           	5.339523e+02
231           	5.342465e+02
232           	5.345378e+02
233           	5.348265e+02
234           	5.351123e+02
235           	5.353955e+02
236           	5.356760e+02
237           	5.359538e+02
238           	5.362290e+02
239           	5.365016e+02
240           	5.367716e+02
241           	5.370391e+02
242           	5.373040e+02
243           	5.375664e+02
244           	5.378263e+02
245           	5.380838e+02
246           	5.383388e+02
247           	5.385914e+02
248           	5.388415e+02
249           	5.390894e+02
250           	5.393348e+02
251           	5.395779e+02
252           	5.398188e+02
253           	5.400573e+02
254           	5.402936e+02
255           	5.405276e+02
256           	5.407594e+02
257           	5.409891e+02
258           	5.412165e+02
259           	5.414418e+02
260           	5.416649e+02
261           	5.418859e+02
262           	5.421049e+02
263           	5.423217e+02
264           	5.425365e+02
265           	5.427493e+02
266           	5.429600e+02
267           	5.431687e+02
268           	5.433755e+02
269           	5.435802e+02
270           	5.437831e+02
271           	5.439840e+02
272           	5.441830e+02
273           	5.443801e+02
274           	5.445753e+02
275           	5.447687e+02
276           	5.449603e+02
277           	5.451500e+02
278           	5.453379e+02
279           	5.455240e+02
280           	5.457084e+02
281           	5.458910e+02
282           	5.460719e+02
283           	5.462511e+02
284           	5.464285e+02
285           	5.466043e+02
286           	5.467784e+02
287           	5.469508e+02
288           	5.471217e+02
289           	5.472908e+02
290           	5.474584e+02
291           	5.476244e+02
292           	5.477888e+02
293           	5.479517e+02
294           	5.481130e+02
295           	5.482727e+02
296           	5.484310e+02
297           	5.485877e+02
298           	5.487430e+02
299           	5.488968e+02
300           	5.490491e+02
301           	5.491999e+02
302           	5.493494e+02
303           	5.494974e+02
304           	5.496440e+02
305           	5.497892e+02
306           	5.499331e+02
307           	5.500756e+02
308           	5.502167e+02
309           	5.503565e+02
310           	5.504949e+02
311           	5.506320e+02
312           	5.507679e+02
313           	5.509024e+02
314           	5.510357e+02
315           	5.511677e+02
316           	5.512984e+02
317           	5.514279e+02
318           	5.515562e+02
319           	5.516833e+02
320           	5.518091e+02
321           	5.519338e+02
322           	5.520573e+02
323           	5.521796e+02
324           	5.523007e+02
325           	5.524207e+02
326           	5.525395e+02
327           	5.526573e+02
328           	5.527739e+02
329           	5.528894e+02
330           	5.530038e+02
331           	5.531171e+02
332           	5.532294e+02
333           	5.533406e+02
334           	5.534507e+02
335           	5.535598e+02
336           	5.536679e+02
337           	5.537750e+02
338           	5.538810e+02
339           	5.539861e+02
340           	5.540902e+02
341           	5.541932e+02
342           	5.542953e+02
343           	5.543965e+02
344           	5.544967e+02
345           	5.545959e+02
346           	5.546942e+02
347           	5.547916e+02
348           	5.548880e+02
349           	5.549836e+02
350           	5.550782e+02
351           	5.551719e+02
352           	5.552648e+02
353           	5.553568e+02
354           	5.554479e+02
355           	5.555381e+02
356           	5.556275e+02
357           	5.557160e+02
358           	5.558037e+02
359           	5.558906e+02
360           	5.559767e+02
361           	5.560619e+02
362           	5.561464e+02
363           	5.562300e+02
364           	5.563129e+02
365           	5.563950e+02
366           	5.564764e+02
367           	5.565570e+02
368           	5.566368e+02
369           	5.567159e+02
370           	5.567942e+02
371           	5.568718e+02
372           	5.569487e+02
373           	5.570249e+02
374           	5.571004e+02
375           	5.571751e+02
376           	5.572492e+02
377           	5.573226e+02
378           	5.573953e+02
379           	5.574673e+02
380           	5.575386e+02
381           	5.576093e+02
382           	5.576793e+02
383           	5.577487e+02
384           	5.578174e+02
385           	5.578855e+02
386           	5.579530e+02
387           	5.580198e+02
388           	5.580860e+02
389           	5.581516e+02
390           	5.582166e+02
391           	5.582809e+02
392           	5.583447e+02
393           	5.584079e+02
394           	5.584704e+02
395           	5.585325e+02
396           	5.585939e+02
397           	5.586547e+02
398           	5.587150e+02
399           	5.587747e+02
400           	5.588339e+02
401           	5.588925e+02
402           	5.589506e+02
403           	5.590081e+02
404           	5.590651e+02
405           	5.591216e+02
406           	5.591775e+02
407           	5.592329e+02
408           	5.592878e+02
409           	5.593422e+02
410           	5.593961e+02
411           	5.594494e+02
412           	5.595023e+02
413           	5.595547e+02
414           	5.596066e+02
415           	5.596580e+02
416           	5.597090e+02
417           	5.597594e+02
418           	5.598094e+02
419           	5.598590e+02
420           	5.599081e+02
421           	5.599567e+02
422           	5.600049e+02
423           	5.600526e+02
424           	5.600999e+02
425           	5.601468e+02
426           	5.601932e+02
427           	5.602391e+02
428           	5.602847e+02
429           	5.603298e+02
430           	5.603745e+02
431           	5.604188e+02
432           	5.604626e+02
433           	5.605061e+02
434           	5.605491e+02
435           	5.605917e+02
436           	5.606339e+02
437           	5.606757e+02
438           	5.607171e+02
439           	5.607581e+02
440           	5.607986e+02
441           	5.608388e+02
442           	5.608786e+02
443           	5.609180e+02
444           	5.609570e+02
445           	5.609956e+02
446           	5.610338e+02
447           	5.610717e+02
448           	5.611092e+02
449           	5.611463e+02
450           	5.611830e+02
451           	5.612194e+02
452           	5.612555e+02
453           	5.612912e+02
454           	5.613266e+02
455           	5.613616e+02
456           	5.613963e+02
457           	5.614306e+02
458           	5.614647e+02
459           	5.614984e+02
460           	5.615318e+02
461           	5.615649e+02
462           	5.615977e+02
463           	5.616302e+02
464           	5.616624e+02
465           	5.616944e+02
466           	5.617260e+02
467           	5.617574e+02
468           	5.617885e+02
469           	5.618193e+02
470           	5.618498e+02
471           	5.618801e+02
472           	5.619101e+02
473           	5.619399e+02
474           	5.619694e+02
475           	5.619986e+02
476           	5.620276e+02
477           	5.620564e+02
478           	5.620849e+02
479           	5.621132e+02
480           	5.621412e+02
481           	5.621690e+02
482           	5.621965e+02
483           	5.622239e+02
484           	5.622509e+02
485           	5.622778e+02
486           	5.623044e+02
487           	5.623308e+02
488           	5.623569e+02
489           	5.623828e+02
490           	5.624085e+02
491           	5.624340e+02
492           	5.624592e+02
493           	5.624841e+02
494           	5.625089e+02
495           	5.625334e+02
496           	5.625577e+02
497           	5.625818e+02
498           	5.626056e+02
499           	5.626292e+02
500           	5.626526e+02
501           	5.626758e+02
502           	5.626988e+02
503           	5.627215e+02
504           	5.627441e+02
505           	5.627664e+02
506           	5.627885e+02
507           	5.628104e+02
508           	5.628321e+02
509           	5.628536e+02
510           	5.628749e+02
511           	5.628960e+02
512           	5.629169e+02
513           	5.629376e+02
514           	5.629581e+02
515           	5.629784e+02
516           	5.629985e+02
517           	5.630185e+02
518           	5.630382e+02
519           	5.630577e+02
520           	5.630771e+02
521           	5.630963e+02
522           	5.631152e+02
523           	5.631341e+02
524           	5.631527e+02
525           	5.631711e+02
526           	5.631894e+02
527           	5.632075e+02
528           	5.632254e+02
529           	5.632431e+02
530           	5.632607e+02
531           	5.632781e+02
532           	5.632953e+02
533           	5.633124e+02
534           	5.633293e+02
535           	5.633460e+02
536           	5.633626e+02
537           	5.633790e+02
538           	5.633953e+02
539           	5.634114e+02
540           	5.634273e+02
541           	5.634431e+02
542           	5.634587e+02
543           	5.634742e+02
544           	5.634896e+02
545           	5.635047e+02
546           	5.635198e+02
547           	5.635347e+02
548           	5.635494e+02
549           	5.635640e+02
550           	5.635785e+02
551           	5.635928e+02
552           	5.636070e+02
553           	5.636210e+02
554           	5.636349e+02
555           	5.636487e+02
556           	5.636623e+02
557           	5.636758e+02
558           	5.636892e+02
559           	5.637024e+02
560           	5.637155e+02
561           	5.637285e+02
562           	5.637413e+02
563           	5.637541e+02
564           	5.637667e+02
565           	5.637791e+02
566           	5.637915e+02
567           	5.638037e+02
568           	5.638159e+02
569           	5.638279e+02
570           	5.638397e+02
571           	5.638515e+02
572           	5.638631e+02
573           	5.638747e+02
574           	5.638861e+02
575           	5.638974e+02
576           	5.639086e+02
577           	5.639197e+02
578           	5.639307e+02
579           	5.639416e+02
580           	5.639523e+02
581           	5.639630e+02
582           	5.639735e+02
583           	5.639840e+02
584           	5.639944e+02
585           	5.640046e+02
586           	5.640148e+02
587           	5.640248e+02
588           	5.640348e+02
589           	5.640446e+02
590           	5.640544e+02
591           	5.640640e+02
592           	5.640736e+02
593           	5.640831e+02
594           	5.640925e+02
595           	5.641018e+02
596           	5.641110e+02
597           	5.641201e+02
598           	5.641291e+02
599           	5.641380e+02
600           	5.641469e+02
601           	5.641556e+02
602           	5.641643e+02
603           	5.641729e+02
604           	5.641814e+02
605           	5.641898e+02
606           	5.641981e+02
607           	5.642064e+02
608           	5.642146e+02
609           	5.642226e+02
610           	5.642307e+02
611           	5.642386e+02
612           	5.642465e+02
613           	5.642542e+02
614           	5.642619e+02
615           	5.642696e+02
616           	5.642771e+02
617           	5.642846e+02
618           	5.642920e+02
619           	5.642994e+02
620           	5.643066e+02
621           	5.643138e+02
622           	5.643209e+02
623           	5.643280e+02
624           	5.643350e+02
625           	5.643419e+02
626           	5.643487e+02
627           	5.643555e+02
628           	5.643622e+02
629           	5.643689e+02
630           	5.643755e+02
631           	5.643820e+02
632           	5.643884e+02
633           	5.643948e+02
634           	5.644012e+02
635           	5.644074e+02
636           	5.644136e+02
637           	5.644198e+02
638           	5.644259e+02
639           	5.644319e+02
640           	5.644379e+02
641           	5.644438e+02
642           	5.644496e+02
643           	5.644554e+02
644           	5.644612e+02
645           	5.644668e+02
646           	5.644725e+02
647           	5.644780e+02
648           	5.644836e+02
649           	5.644890e+02
650           	5.644944e+02
651           	5.644998e+02
652           	5.645051e+02
653           	5.645104e+02
654           	5.645156e+02
655           	5.645207e+02
656           	5.645258e+02
657           	5.645309e+02
658           	5.645359e+02
659           	5.645408e+02
660           	5.645457e+02
661           	5.645506e+02
662           	5.645554e+02
663           	5.645601e+02
664           	5.645649e+02
665           	5.645695e+02
666           	5.645742e+02
667           	5.645787e+02
668           	5.645833e+02
669           	5.645878e+02
670           	5.645922e+02
671           	5.645966e+02
672           	5.646010e+02
673           	5.646053e+02
674           	5.646096e+02
675           	5.646138e+02
676           	5.646180e+02
677           	5.646221e+02
678           	5.646263e+02
679           	5.646303e+02
680           	5.646344e+02
681           	5.646384e+02
682           	5.646423e+02
683           	5.646462e+02
684           	5.646501e+02
685           	5.646539e+02
686           	5.646577e+02
687           	5.646615e+02
688           	5.646652e+02
689           	5.646689e+02
690           	5.646726e+02
691           	5.646762e+02
692           	5.646798e+02
693           	5.646833e+02
694           	5.646868e+02
695           	5.646903e+02
696           	5.646938e+02
697           	5.646972e+02
698           	5.647006e+02
699           	5.647039e+02
700           	5.647072e+02
701           	5.647105e+02
702           	5.647138e+02
703           	5.647170e+02
704           	5.647202e+02
705           	5.647233e+02
706           	5.647265e+02
707           	5.647295e+02
708           	5.647326e+02
709           	5.647356e+02
710           	5.647387e+02
711           	5.647416e+02
712           	5.647446e+02
713           	5.647475e+02
714           	5.647504e+02
715           	5.647533e+02
716           	5.647561e+02
717           	5.647589e+02
718           	5.647617e+02
719           	5.647644e+02
720           	5.647672e+02
721           	5.647699e+02
722           	5.647725e+02
723           	5.647752e+02
724           	5.647778e+02
725           	5.647804e+02
726           	5.647830e+02
727           	5.647855e+02
728           	5.647880e+02
729           	5.647905e+02
730           	5.647930e+02
731           	5.647954e+02
732           	5.647979e+02
733           	5.648003e+02
734           	5.648027e+02
735           	5.648050e+02
736           	5.648073e+02
737           	5.648096e+02
738           	5.648119e+02
739           	5.648142e+02
740           	5.648164e+02
741           	5.648187e+02
742           	5.648209e+02
743           	5.648230e+02
744           	5.648252e+02
745           	5.648273e+02
746           	5.648294e+02
747           	5.648315e+02
748           	5.648336e+02
749           	5.648357e+02
750           	5.648377e+02
751           	5.648397e+02
752           	5.648417e+02
753           	5.648437e+02
754           	5.648456e+02
755           	5.648476e+02
756           	5.648495e+02
757           	5.648514e+02
758           	5.648533e+02
759           	5.648551e+02
760           	5.648570e+02
761           	5.648588e+02
762           	5.648606e+02
763           	5.648624e+02
764           	5.648642e+02
765           	5.648660e+02
766           	5.648677e+02
767           	5.648694e+02
768           	5.648711e+02
769           	5.648728e+02
770           	5.648745e+02
771           	5.648761e+02
772           	5.648778e+02
773           	5.648794e+02
774           	5.648810e+02
775           	5.648826e+02
776           	5.648842e+02
777           	5.648858e+02
778           	5.648873e+02
779           	5.648888e+02
780           	5.648904e+02
781           	5.648919e+02
782           	5.648933e+02
783           	5.648948e+02
784           	5.648963e+02
785           	5.648977e+02
786           	5.648992e+02
787           	5.649006e+02
788           	5.649020e+02
789           	5.649034e+02
790           	5.649047e+02
791           	5.649061e+02
792           	5.649075e+02
793           	5.649088e+02
794           	5.649101e+02
795           	5.649114e+02
796           	5.649127e+02
797           	5.649140e+02
798           	5.649153e+02
799           	5.649166e+02
800           	5.649178e+02
801           	5.649190e+02
802           	5.649203e+02
803           	5.649215e+02
804           	5.649227e+02
805           	5.649239e+02
806           	5.649251e+02
807           	5.649262e+02
808           	5.649274e+02
809           	5.649285e+02
810           	5.649297e+02
811           	5.649308e+02
812           	5.649319e+02
813           	5.649330e+02
814           	5.649341e+02
815           	5.649352e+02
816           	5.649362e+02
817           	5.649373e+02
818           	5.649383e+02
819           	5.649394e+02
820           	5.649404e+02
821           	5.649414e+02
822           	5.649424e+02
823           	5.649434e+02
824           	5.649444e+02
825           	5.649454e+02
826           	5.649464e+02
827           	5.649473e+02
828           	5.649483e+02
829           	5.649492e+02
830           	5.649502e+02
831           	5.649511e+02
832           	5.649520e+02
833           	5.649529e+02
834           	5.649538e+02
835           	5.649547e+02
836           	5.649556e+02
837           	5.649564e+02
838           	5.649573e+02
839           	5.649582e+02
840           	5.649590e+02
841           	5.649598e+02
842           	5.649607e+02
843           	5.649615e+02
844           	5.649623e+02
845           	5.649631e+02
846           	5.649639e+02
847           	5.649647e+02
848           	5.649655e+02
849           	5.649663e+02
850           	5.649670e+02
851           	5.649678e+02
852           	5.649685e+02
853           	5.649693e+02
854           	5.649700e+02
855           	5.649708e+02
856           	5.649715e+02
857           	5.649722e+02
858           	5.649729e+02
859           	5.649736e+02
860           	5.649743e+02
861           	5.649750e+02
862           	5.649757e+02
863           	5.649764e+02
864           	5.649770e+02
865           	5.649777e+02
866           	5.649784e+02
867           	5.649790e+02
868           	5.649797e+02
869           	5.649803e+02
870           	5.649809e+02
871           	5.649816e+02
872           	5.649822e+02
873           	5.649828e+02
874           	5.649834e+02
875           	5.649840e+02
876           	5.649846e+02
877           	5.649852e+02
878           	5.649858e+02
879           	5.649863e+02
880           	5.649869e+02
881           	5.649875e+02
882           	5.649881e+02
883           	5.649886e+02
884           	5.649892e+02
885           	5.649897e+02
886           	5.649902e+02
887           	5.649908e+02
888           	5.649913e+02
889           	5.649918e+02
890           	5.649924e+02
891           	5.649929e+02
892           	5.649934e+02
893           	5.649939e+02
894           	5.649944e+02
895           	5.649949e+02
896           	5.649954e+02
897           	5.649959e+02
898           	5.649963e+02
899           	5.649968e+02
900           	5.649973e+02
901           	5.649978e+02
902           	5.649982e+02
903           	5.649987e+02
904           	5.649991e+02
905           	5.649996e+02
906           	5.650000e+02
907           	5.650005e+02
908           	5.650009e+02
909           	5.650014e+02
910           	5.650018e+02
911           	5.650022e+02
912           	5.650026e+02
913           	5.650030e+02
914           	5.650035e+02
915           	5.650039e+02
916           	5.650043e+02
917           	5.650047e+02
918           	5.650051e+02
919           	5.650055e+02
920           	5.650058e+02
921           	5.650062e+02
922           	5.650066e+02
923           	5.650070e+02
924           	5.650074e+02
925           	5.650077e+02
926           	5.650081e+02
927           	5.650085e+02
928           	5.650088e+02
929           	5.650092e+02
930           	5.650095e+02
931           	5.650099e+02
932           	5.650102e+02
933           	5.650106e+02
934           	5.650109e+02
935           	5.650112e+02
936           	5.650116e+02
937           	5.650119e+02
938           	5.650122e+02
939           	5.650126e+02
940           	5.650129e+02
941           	5.650132e+02
942           	5.650135e+02
943           	5.650138e+02
944           	5.650141e+02
945           	5.650144e+02
946           	5.650147e+02
947           	5.650150e+02
948           	5.650153e+02
949           	5.650156e+02
950           	5.650159e+02
951           	5.650162e+02
952           	5.650165e+02
953           	5.650168e+02
954           	5.650171e+02
955           	5.650173e+02
956           	5.650176e+02
957           	5.650179e+02
958           	5.650181e+02
959           	5.650184e+02
960           	5.650187e+02
961           	5.650189e+02
962           	5.650192e+02
963           	5.650195e+02
964           	5.650197e+02
965           	5.650200e+02
966           	5.650202e+02
967           	5.650205e+02
968           	5.650207e+02
969           	5.650209e+02
970           	5.650212e+02
971           	5.650214e+02
972           	5.650216e+02
973           	5.650219e+02
974           	5.650221e+02
975           	5.650223e+02
976           	5.650226e+02
977           	5.650228e+02
978           	5.650230e+02
979           	5.650232e+02
980           	5.650234e+02
981           	5.650237e+02
982           	5.650239e+02
983           	5.650241e+02
984           	5.650243e+02
985           	5.650245e+02
986           	5.650247e+02
987           	5.650249e+02
988           	5.650251e+02
989           	5.650253e+02
990           	5.650255e+02
991           	5.650257e+02
992           	5.650259e+02
993           	5.650261e+02
994           	5.650263e+02
995           	5.650265e+02
996           	5.650267e+02
997           	5.650268e+02
998           	5.650270e+02
999           	5.650272e+02
1000          	5.650274e+02
1001          	5.650276e+02
1002          	5.650277e+02
1003          	5.650279e+02
1004          	5.650281e+02
1005          	5.650282e+02
1006          	5.650284e+02
1007          	5.650286e+02
1008          	5.650287e+02
1009          	5.650289e+02
1010          	5.650291e+02
1011          	5.650292e+02
1012          	5.650294e+02
1013          	5.650296e+02
1014          	5.650297e+02
1015          	5.650299e+02
1016          	5.650300e+02
1017          	5.650302e+02
1018          	5.650303e+02
1019          	5.650305e+02
1020          	5.650306e+02
1021          	5.650308e+02
1022          	5.650309e+02
1023          	5.650310e+02
1024          	5.650312e+02
1025          	5.650313e+02
1026          	5.650315e+02
1027          	5.650316e+02
1028          	5.650317e+02
1029          	5.650319e+02
1030          	5.650320e+02
1031          	5.650321e+02
1032          	5.650323e+02
1033          	5.650324e+02
1034          	5.650325e+02
1035          	5.650327e+02
1036          	5.650328e+02
1037          	5.650329e+02
1038          	5.650330e+02
1039          	5.650332e+02
1040          	5.650333e+02
1041          	5.650334e+02
1042          	5.650335e+02
1043          	5.650336e+02
1044          	5.650338e+02
1045          	5.650339e+02
1046          	5.650340e+02
1047          	5.650341e+02
1048          	5.650342e+02
1049          	5.650343e+02
1050          	5.650344e+02
1051          	5.650345e+02
1052          	5.650346e+02
1053          	5.650348e+02
1054          	5.650349e+02
1055          	5.650350e+02
1056          	5.650351e+02
1057          	5.650352e+02
1058          	5.650353e+02
1059          	5.650354e+02
1060          	5.650355e+02
1061          	5.650356e+02
1062          	5.650357e+02
1063          	5.650358e+02
1064          	5.650359e+02
1065          	5.650360e+02
1066          	5.650361e+02
1067          	5.650361e+02