# Region      : all 
# Cells       : 593
# Volume      : 1.000000e-06
# Time        	max(T)
0             	2.969000e+02
1             	3.136183e+02
2             	3.161454e+02
3             	3.189794e+02
4             	3.216495e+02
5             	3.242004e+02
6             	3.266694e+02
7             	3.290802e+02
8             	3.314480e+02
9             	3.337822e+02
10            	3.360887e+02
11            	3.383715e+02
12            	3.406330e+02
13            	3.428751e+02
14            	3.450989e+02
15            	3.473052e+02
16            	3.494947e+02
17            	3.516678e+02
18            	3.538248e+02
19            	3.559661e+02
20            	3.580919e+02
21            	3.602026e+02
22            	3.622983e+02
23            	3.643791e+02
24            	3.664450e+02
25            	3.684963e+02
26            	3.705328e+02
27            	3.725548e+02
28            	3.745621e+02
29            	3.765544e+02
30            	3.785312e+02
31            	3.804922e+02
32            	3.824370e+02
33            	3.843654e+02
34            	3.862773e+02
35            	3.881725e+02
36            	3.900510e+02
37            	3.919129e+02
38            	3.937580e+02
39            	3.955865e+02
40            	3.973985e+02
41            	3.991941e+02
42            	4.009735e+02
43            	4.027368e+02
44            	4.044841e+02
45            	4.062156e+02
46            	4.079312e+02
47            	4.096312e+02
48            	4.113156e+02
49            	4.129846e+02
50            	4.146383e+02
51            	4.162769e+02
52            	4.179004e+02
53            	4.195091e+02
54            	4.211031e+02
55            	4.226825e+02
56            	4.242474e+02
57            	4.257981e+02
58            	4.273346e+02
59            	4.288570e+02
60            	4.303656e+02
61            	4.318605e+02
62            	4.333417e+02
63            	4.348093e+02
64            	4.362636e+02
65            	4.377045e+02
66            	4.391322e+02
67            	4.405468e+02
68            	4.419484e+02
69            	4.433371e+02
70            	4.447131e+02
71            	4.460763e+02
72            	4.474271e+02
73            	4.487654e+02
74            	4.500913e+02
75            	4.514050e+02
76            	4.527064e+02
77            	4.539958e+02
78            	4.552732e+02
79            	4.565388e+02
80            	4.577925e+02
81            	4.590346e+02
82            	4.602652e+02
83            	4.614842e+02
84            	4.626918e+02
85            	4.638882e+02
86            	4.650733e+02
87            	4.662473e+02
88            	4.674103e+02
89            	4.685623e+02
90            	4.697036e+02
91            	4.708341e+02
92            	4.719541e+02
93            	4.730635e+02
94            	4.741625e+02
95            	4.752511e+02
96            	4.763295e+02
97            	4.773976e+02
98            	4.784557e+02
99            	4.795038e+02
100           	4.805420e+02
101           	4.815704e+02
102           	4.825891e+02
103           	4.835981e+02
104           	4.845977e+02
105           	4.855879e+02
106           	4.865687e+02
107           	4.875404e+02
108           	4.885029e+02
109           	4.894564e+02
110           	4.904009e+02
111           	4.913365e+02
112           	4.922633e+02
113           	4.931813e+02
114           	4.940908e+02
115           	4.949917e+02
116           	4.958841e+02
117           	4.967682e+02
118           	4.976439e+02
119           	4.985115e+02
120           	4.993709e+02
121           	5.002222e+02
122           	5.010655e+02
123           	5.019010e+02
124           	5.027286e+02
125           	5.035484e+02
126           	5.043605e+02
127           	5.051650e+02
128           	5.059620e+02
129           	5.067515e+02
130           	5.075336e+02
131           	5.083084e+02
132           	5.090760e+02
133           	5.098363e+02
134           	5.105895e+02
135           	5.113357e+02
136           	5.120748e+02
137           	5.128071e+02
138           	5.135324e+02
139           	5.142509e+02
140           	5.149627e+02
141           	5.156678e+02
142           	5.163662e+02
143           	5.170580e+02
144           	5.177434e+02
145           	5.184222e+02
146           	5.190947e+02
147           	5.197608e+02
148           	5.204206e+02
149           	5.210742e+02
150           	5.217216e+02
151           	5.223629e+02
152           	5.229982e+02
153           	5.236275e+02
154           	5.242509e+02
155           	5.248683e+02
156           	5.254799e+02
157           	5.260857e+02
158           	5.266857e+02
159           	5.272801e+02
160           	5.278687e+02
161           	5.284518e+02
162           	5.290292e+02
163           	5.296012e+02
164           	5.301676e+02
165           	5.307287e+02
166           	5.312844e+02
167           	5.318347e+02
168           	5.323798e+02
169           	5.329196e+02
170           	5.334543e+02
171           	5.339839e+02
172           	5.345084e+02
173           	5.350279e+02
174           	5.355424e+02
175           	5.360519e+02
176           	5.365565e+02
177           	5.370562e+02
178           	5.375512e+02
179           	5.380414e+02
180           	5.385269e+02
181           	5.390078e+02
182           	5.394840e+02
183           	5.399557e+02
184           	5.404228e+02
185           	5.408853e+02
186           	5.413435e+02
187           	5.417972e+02
188           	5.422465e+02
189           	5.426915e+02
190           	5.431321e+02
191           	5.435686e+02
192           	5.440008e+02
193           	5.444288e+02
194           	5.448527e+02
195           	5.452725e+02
196           	5.456882e+02
197           	5.461000e+02
198           	5.465078e+02
199           	5.469116e+02
200           	5.473116e+02
201           	5.477078e+02
202           	5.481001e+02
203           	5.484886e+02
204           	5.488734e+02
205           	5.492546e+02
206           	5.496320e+02
207           	5.500058e+02
208           	5.503759e+02
209           	5.507425e+02
210           	5.511056e+02
211           	5.514651e+02
212           	5.518212e+02
213           	5.521738e+02
214           	5.525230e+02
215           	5.528689e+02
216           	5.532114e+02
217           	5.535506e+02
218           	5.538865e+02
219           	5.542191e+02
220           	5.545486e+02
221           	5.548748e+02
222           	5.551979e+02
223           	5.555179e+02
224           	5.558348e+02
225           	5.561486e+02
226           	5.564594e+02
227           	5.567672e+02
228           	5.570720e+02
229           	5.573739e+02
230           	5.576729e+02
231           	5.579690e+02
232           	5.582622e+02
233           	5.585526e+02
234           	5.588403e+02
235           	5.591251e+02
236           	5.594073e+02
237           	5.596867e+02
238           	5.599634e+02
239           	5.602375e+02
240           	5.605090e+02
241           	5.607778e+02
242           	5.610441e+02
243           	5.613079e+02
244           	5.615691e+02
245           	5.618278e+02
246           	5.620841e+02
247           	5.623379e+02
248           	5.625893e+02
249           	5.628382e+02
250           	5.630848e+02
251           	5.633291e+02
252           	5.635710e+02
253           	5.638106e+02
254           	5.640479e+02
255           	5.642829e+02
256           	5.645158e+02
257           	5.647465e+02
258           	5.649750e+02
259           	5.652014e+02
260           	5.654256e+02
261           	5.656477e+02
262           	5.658678e+02
263           	5.660857e+02
264           	5.663016e+02
265           	5.665154e+02
266           	5.667271e+02
267           	5.669369e+02
268           	5.671446e+02
269           	5.673503e+02
270           	5.675541e+02
271           	5.677559e+02
272           	5.679558e+02
273           	5.681537e+02
274           	5.683497e+02
275           	5.685439e+02
276           	5.687362e+02
277           	5.689266e+02
278           	5.691153e+02
279           	5.693020e+02
280           	5.694870e+02
281           	5.696702e+02
282           	5.698517e+02
283           	5.700313e+02
284           	5.702093e+02
285           	5.703854e+02
286           	5.705599e+02
287           	5.707327e+02
288           	5.709038e+02
289           	5.710733e+02
290           	5.712411e+02
291           	5.714072e+02
292           	5.715718e+02
293           	5.717348e+02
294           	5.718961e+02
295           	5.720559e+02
296           	5.722142e+02
297           	5.723709e+02
298           	5.725260e+02
299           	5.726796e+02
300           	5.728317e+02
301           	5.729823e+02
302           	5.731314e+02
303           	5.732790e+02
304           	5.734252e+02
305           	5.735699e+02
306           	5.737132e+02
307           	5.738550e+02
308           	5.739954e+02
309           	5.741345e+02
310           	5.742721e+02
311           	5.744084e+02
312           	5.745433e+02
313           	5.746768e+02
314           	5.748090e+02
315           	5.749399e+02
316           	5.750694e+02
317           	5.751977e+02
318           	5.753247e+02
319           	5.754503e+02
320           	5.755748e+02
321           	5.756979e+02
322           	5.758199e+02
323           	5.759406e+02
324           	5.760601e+02
325           	5.761784e+02
326           	5.762955e+02
327           	5.764115e+02
328           	5.765263e+02
329           	5.766399e+02
330           	5.767524e+02
331           	5.768638e+02
332           	5.769741e+02
333           	5.770833e+02
334           	5.771914e+02
335           	5.772984e+02
336           	5.774044e+02
337           	5.775093e+02
338           	5.776131e+02
339           	5.777159e+02
340           	5.778177e+02
341           	5.779185e+02
342           	5.780183e+02
343           	5.781171e+02
344           	5.782150e+02
345           	5.783118e+02
346           	5.784077e+02
347           	5.785027e+02
348           	5.785967e+02
349           	5.786898e+02
350           	5.787819e+02
351           	5.788732e+02
352           	5.789635e+02
353           	5.790530e+02
354           	5.791415e+02
355           	5.792292e+02
356           	5.793160e+02
357           	5.794020e+02
358           	5.794871e+02
359           	5.795713e+02
360           	5.796547e+02
361           	5.797373e+02
362           	5.798190e+02
363           	5.799000e+02
364           	5.799801e+02
365           	5.800594e+02
366           	5.801379e+02
367           	5.802156e+02
368           	5.802926e+02
369           	5.803687e+02
370           	5.804441e+02
371           	5.805188e+02
372           	5.805927e+02
373           	5.806658e+02
374           	5.807382e+02
375           	5.808099e+02
376           	5.808809e+02
377           	5.809511e+02
378           	5.810207e+02
379           	5.810895e+02
380           	5.811577e+02
381           	5.812251e+02
382           	5.812919e+02
383           	5.813581e+02
384           	5.814236e+02
385           	5.814884e+02
386           	5.815526e+02
387           	5.816161e+02
388           	5.816790e+02
389           	5.817413e+02
390           	5.818030e+02
391           	5.818640e+02
392           	5.819244e+02
393           	5.819843e+02
394           	5.820435e+02
395           	5.821022e+02
396           	5.821603e+02
397           	5.822178e+02
398           	5.822747e+02
399           	5.823311e+02
400           	5.823869e+02
401           	5.824422e+02
402           	5.824969e+02
403           	5.825511e+02
404           	5.826047e+02
405           	5.826579e+02
406           	5.827105e+02
407           	5.827626e+02
408           	5.828143e+02
409           	5.828654e+02
410           	5.829160e+02
411           	5.829661e+02
412           	5.830158e+02
413           	5.830650e+02
414           	5.831137e+02
415           	5.831619e+02
416           	5.832097e+02
417           	5.832570e+02
418           	5.833039e+02
419           	5.833503e+02
420           	5.833964e+02
421           	5.834419e+02
422           	5.834871e+02
423           	5.835318e+02
424           	5.835761e+02
425           	5.836201e+02
426           	5.836636e+02
427           	5.837066e+02
428           	5.837493e+02
429           	5.837916e+02
430           	5.838335e+02
431           	5.838750e+02
432           	5.839162e+02
433           	5.839569e+02
434           	5.839973e+02
435           	5.840373e+02
436           	5.840769e+02
437           	5.841162e+02
438           	5.841551e+02
439           	5.841936e+02
440           	5.842318e+02
441           	5.842697e+02
442           	5.843072e+02
443           	5.843443e+02
444           	5.843811e+02
445           	5.844176e+02
446           	5.844537e+02
447           	5.844895e+02
448           	5.845249e+02
449           	5.845600e+02
450           	5.845948e+02
451           	5.846292e+02
452           	5.846633e+02
453           	5.846971e+02
454           	5.847306e+02
455           	5.847637e+02
456           	5.847965e+02
457           	5.848289e+02
458           	5.848611e+02
459           	5.848929e+02
460           	5.849245e+02
461           	5.849557e+02
462           	5.849865e+02
463           	5.850171e+02
464           	5.850474e+02
465           	5.850773e+02
466           	5.851070e+02
467           	5.851363e+02
468           	5.851654e+02
469           	5.851942e+02
470           	5.852226e+02
471           	5.852508e+02
472           	5.852787e+02
473           	5.853063e+02
474           	5.853337e+02
475           	5.853607e+02
476           	5.853875e+02
477           	5.854140e+02
478           	5.854403e+02
479           	5.854663e+02
480           	5.854920e+02
481           	5.855174e+02
482           	5.855426e+02
483           	5.855676e+02
484           	5.855923e+02
485           	5.856167e+02
486           	5.856409e+02
487           	5.856649e+02
488           	5.856886e+02
489           	5.857121e+02
490           	5.857353e+02
491           	5.857583e+02
492           	5.857811e+02
493           	5.858036e+02
494           	5.858259e+02
495           	5.858480e+02
496           	5.858699e+02
497           	5.858916e+02
498           	5.859130e+02
499           	5.859343e+02
500           	5.859553e+02
501           	5.859762e+02
502           	5.859968e+02
503           	5.860172e+02
504           	5.860374e+02
505           	5.860574e+02
506           	5.860772e+02
507           	5.860968e+02
508           	5.861162e+02
509           	5.861354e+02
510           	5.861544e+02
511           	5.861732e+02
512           	5.861918e+02
513           	5.862103e+02
514           	5.862285e+02
515           	5.862466e+02
516           	5.862645e+02
517           	5.862823e+02
518           	5.862998e+02
519           	5.863172e+02
520           	5.863345e+02
521           	5.863516e+02
522           	5.863685e+02
523           	5.863853e+02
524           	5.864019e+02
525           	5.864183e+02
526           	5.864346e+02
527           	5.864508e+02
528           	5.864668e+02
529           	5.864826e+02
530           	5.864983e+02
531           	5.865139e+02
532           	5.865293e+02
533           	5.865445e+02
534           	5.865597e+02
535           	5.865746e+02
536           	5.865895e+02
537           	5.866042e+02
538           	5.866187e+02
539           	5.866331e+02
540           	5.866474e+02
541           	5.866616e+02
542           	5.866756e+02
543           	5.866895e+02
544           	5.867032e+02
545           	5.867168e+02
546           	5.867303e+02
547           	5.867437e+02
548           	5.867569e+02
549           	5.867700e+02
550           	5.867829e+02
551           	5.867957e+02
552           	5.868084e+02
553           	5.868210e+02
554           	5.868335e+02
555           	5.868458e+02
556           	5.868580e+02
557           	5.868701e+02
558           	5.868821e+02
559           	5.868939e+02
560           	5.869057e+02
561           	5.869173e+02
562           	5.869288e+02
563           	5.869403e+02
564           	5.869516e+02
565           	5.869628e+02
566           	5.869738e+02
567           	5.869848e+02
568           	5.869957e+02
569           	5.870064e+02
570           	5.870171e+02
571           	5.870276e+02
572           	5.870381e+02
573           	5.870484e+02
574           	5.870587e+02
575           	5.870689e+02
576           	5.870789e+02
577           	5.870889e+02
578           	5.870988e+02
579           	5.871086e+02
580           	5.871184e+02
581           	5.871280e+02
582           	5.871376e+02
583           	5.871471e+02
584           	5.871566e+02
585           	5.871659e+02
586           	5.871752e+02
587           	5.871844e+02
588           	5.871935e+02
589           	5.872025e+02
590           	5.872115e+02
591           	5.872204e+02
592           	5.872292e+02
593           	5.872379e+02
594           	5.872465e+02
595           	5.872551e+02
596           	5.872635e+02
597           	5.872719e+02
598           	5.872803e+02
599           	5.872885e+02
600           	5.872967e+02
601           	5.873048e+02
602           	5.873128e+02
603           	5.873207e+02
604           	5.873286e+02
605           	5.873364e+02
606           	5.873441e+02
607           	5.873518e+02
608           	5.873594e+02
609           	5.873669e+02
610           	5.873744e+02
611           	5.873818e+02
612           	5.873891e+02
613           	5.873964e+02
614           	5.874036e+02
615           	5.874108e+02
616           	5.874179e+02
617           	5.874249e+02
618           	5.874319e+02
619           	5.874388e+02
620           	5.874457e+02
621           	5.874525e+02
622           	5.874593e+02
623           	5.874660e+02
624           	5.874726e+02
625           	5.874792e+02
626           	5.874858e+02
627           	5.874923e+02
628           	5.874987e+02
629           	5.875051e+02
630           	5.875114e+02
631           	5.875177e+02
632           	5.875240e+02
633           	5.875301e+02
634           	5.875363e+02
635           	5.875424e+02
636           	5.875484e+02
637           	5.875544e+02
638           	5.875604e+02
639           	5.875663e+02
640           	5.875721e+02
641           	5.875780e+02
642           	5.875837e+02
643           	5.875895e+02
644           	5.875952e+02
645           	5.876008e+02
646           	5.876065e+02
647           	5.876121e+02
648           	5.876176e+02
649           	5.876232e+02
650           	5.876287e+02
651           	5.876342e+02
652           	5.876396e+02
653           	5.876450e+02
654           	5.876504e+02
655           	5.876557e+02
656           	5.876610e+02
657           	5.876662e+02
658           	5.876715e+02
659           	5.876766e+02
660           	5.876818e+02
661           	5.876869e+02
662           	5.876920e+02
663           	5.876970e+02
664           	5.877020e+02
665           	5.877070e+02
666           	5.877119e+02
667           	5.877167e+02
668           	5.877215e+02
669           	5.877263e+02
670           	5.877309e+02
671           	5.877356e+02
672           	5.877401e+02
673           	5.877447e+02
674           	5.877491e+02
675           	5.877535e+02
676           	5.877578e+02
677           	5.877621e+02
678           	5.877664e+02
679           	5.877705e+02
680           	5.877746e+02
681           	5.877787e+02
682           	5.877827e+02
683           	5.877867e+02
684           	5.877906e+02
685           	5.877945e+02
686           	5.877983e+02
687           	5.878021e+02
688           	5.878058e+02
689           	5.878095e+02
690           	5.878132e+02
691           	5.878168e+02
692           	5.878204e+02
693           	5.878240e+02
694           	5.878275e+02
695           	5.878310e+02
696           	5.878344e+02
697           	5.878378e+02
698           	5.878412e+02
699           	5.878445e+02
700           	5.878479e+02
701           	5.878511e+02
702           	5.878544e+02
703           	5.878576e+02
704           	5.878608e+02
705           	5.878639e+02
706           	5.878670e+02
707           	5.878701e+02
708           	5.878731e+02
709           	5.878761e+02
710           	5.878791e+02
711           	5.878820e+02
712           	5.878849e+02
713           	5.878877e+02
714           	5.878906e+02
715           	5.878934e+02
716           	5.878961e+02
717           	5.878988e+02
718           	5.879015e+02
719           	5.879041e+02
720           	5.879066e+02
721           	5.879091e+02
722           	5.879115e+02
723           	5.879139e+02
724           	5.879162e+02
725           	5.879184e+02
726           	5.879206e+02
727           	5.879227e+02
728           	5.879248e+02
729           	5.879268e+02
730           	5.879288e+02
731           	5.879306e+02
732           	5.879325e+02
733           	5.879342e+02
734           	5.879359e+02
735           	5.879376e+02
736           	5.879392e+02
737           	5.879407e+02
738           	5.879422e+02
739           	5.879437e+02
740           	5.879451e+02
741           	5.879464e+02
742           	5.879477e+02
743           	5.879489e+02
744           	5.879501e+02
745           	5.879513e+02
746           	5.879524e+02
747           	5.879535e+02
748           	5.879545e+02
749           	5.879555e+02
750           	5.879565e+02
751           	5.879575e+02
752           	5.879584e+02
753           	5.879593e+02
754           	5.879601e+02
755           	5.879610e+02
756           	5.879618e+02
757           	5.879626e+02
758           	5.879634e+02
759           	5.879642e+02
760           	5.879649e+02
761           	5.879657e+02
762           	5.879665e+02
763           	5.879672e+02
764           	5.879680e+02
765           	5.879687e+02
766           	5.879695e+02
767           	5.879703e+02
768           	5.879710e+02
769           	5.879718e+02
770           	5.879725e+02
771           	5.879732e+02
772           	5.879739e+02
773           	5.879745e+02
774           	5.879752e+02
775           	5.879758e+02
776           	5.879764e+02
777           	5.879770e+02
778           	5.879775e+02
779           	5.879781e+02
780           	5.879786e+02
781           	5.879791e+02
782           	5.879796e+02
783           	5.879801e+02
784           	5.879805e+02
785           	5.879810e+02
786           	5.879814e+02
787           	5.879819e+02
788           	5.879823e+02
789           	5.879827e+02
790           	5.879831e+02
791           	5.879835e+02
792           	5.879839e+02
793           	5.879842e+02
794           	5.879846e+02
795           	5.879850e+02
796           	5.879853e+02
797           	5.879857e+02
798           	5.879860e+02
799           	5.879864e+02
800           	5.879867e+02
801           	5.879871e+02
802           	5.879874e+02
803           	5.879878e+02
804           	5.879881e+02
805           	5.879885e+02
806           	5.879888e+02
807           	5.879892e+02
808           	5.879895e+02
809           	5.879899e+02
810           	5.879903e+02
811           	5.879907e+02
812           	5.879910e+02
813           	5.879914e+02
814           	5.879918e+02
815           	5.879922e+02
816           	5.879926e+02
817           	5.879930e+02
818           	5.879934e+02
819           	5.879938e+02
820           	5.879942e+02
821           	5.879946e+02
822           	5.879951e+02
823           	5.879955e+02
824           	5.879959e+02
825           	5.879963e+02
826           	5.879967e+02
827           	5.879972e+02
828           	5.879976e+02
829           	5.879980e+02
830           	5.879985e+02
831           	5.879989e+02
832           	5.879993e+02
833           	5.879998e+02
834           	5.880002e+02
835           	5.880006e+02
836           	5.880011e+02
837           	5.880016e+02
838           	5.880020e+02
839           	5.880025e+02
840           	5.880029e+02
841           	5.880034e+02
842           	5.880039e+02
843           	5.880043e+02
844           	5.880048e+02
845           	5.880053e+02
846           	5.880057e+02
847           	5.880062e+02
848           	5.880067e+02
849           	5.880072e+02
850           	5.880077e+02
851           	5.880082e+02
852           	5.880087e+02
853           	5.880092e+02
854           	5.880096e+02
855           	5.880101e+02
856           	5.880107e+02
857           	5.880112e+02
858           	5.880117e+02
859           	5.880122e+02
860           	5.880127e+02
861           	5.880132e+02
862           	5.880137e+02
863           	5.880142e+02
864           	5.880148e+02
865           	5.880153e+02
866           	5.880159e+02
867           	5.880164e+02
868           	5.880170e+02
869           	5.880175e+02
870           	5.880181e+02
871           	5.880187e+02
872           	5.880193e+02
873           	5.880199e+02
874           	5.880205e+02
875           	5.880211e+02
876           	5.880217e+02
877           	5.880224e+02
878           	5.880230e+02
879           	5.880237e+02
880           	5.880244e+02
881           	5.880251e+02
882           	5.880258e+02
883           	5.880265e+02
884           	5.880273e+02
885           	5.880280e+02
886           	5.880288e+02
887           	5.880296e+02
888           	5.880304e+02
889           	5.880313e+02
890           	5.880321e+02
891           	5.880330e+02
892           	5.880339e+02
893           	5.880348e+02
894           	5.880358e+02
895           	5.880367e+02
896           	5.880377e+02
897           	5.880387e+02
898           	5.880397e+02
899           	5.880408e+02
900           	5.880418e+02
901           	5.880428e+02
902           	5.880439e+02
903           	5.880450e+02
904           	5.880461e+02
905           	5.880472e+02
906           	5.880483e+02
907           	5.880495e+02
908           	5.880506e+02
909           	5.880517e+02
910           	5.880529e+02
911           	5.880540e+02
912           	5.880552e+02
913           	5.880563e+02
914           	5.880575e+02
915           	5.880587e+02
916           	5.880600e+02
917           	5.880612e+02
918           	5.880624e+02
919           	5.880637e+02
920           	5.880649e+02
921           	5.880662e+02
922           	5.880675e+02
923           	5.880688e+02
924           	5.880700e+02
925           	5.880713e+02
926           	5.880726e+02
927           	5.880738e+02
928           	5.880751e+02
929           	5.880763e+02
930           	5.880775e+02
931           	5.880787e+02
932           	5.880799e+02
933           	5.880810e+02
934           	5.880822e+02
935           	5.880833e+02
936           	5.880844e+02
937           	5.880855e+02
938           	5.880866e+02
939           	5.880876e+02
940           	5.880886e+02
941           	5.880896e+02
942           	5.880906e+02
943           	5.880916e+02
944           	5.880926e+02
945           	5.880935e+02
946           	5.880944e+02
947           	5.880953e+02
948           	5.880962e+02
949           	5.880971e+02
950           	5.880980e+02
951           	5.880988e+02
952           	5.880996e+02
953           	5.881005e+02
954           	5.881013e+02
955           	5.881021e+02
956           	5.881029e+02
957           	5.881037e+02
958           	5.881044e+02
959           	5.881052e+02
960           	5.881060e+02
961           	5.881067e+02
962           	5.881075e+02
963           	5.881082e+02
964           	5.881089e+02
965           	5.881097e+02
966           	5.881104e+02
967           	5.881111e+02
968           	5.881118e+02
969           	5.881125e+02
970           	5.881132e+02
971           	5.881139e+02
972           	5.881145e+02
973           	5.881152e+02
974           	5.881158e+02
975           	5.881165e+02
976           	5.881171e+02
977           	5.881177e+02
978           	5.881183e+02
979           	5.881188e+02
980           	5.881193e+02
981           	5.881197e+02
982           	5.881202e+02
983           	5.881206e+02
984           	5.881209e+02
985           	5.881212e+02
986           	5.881215e+02
987           	5.881217e+02
988           	5.881219e+02
989           	5.881220e+02
990           	5.881222e+02
991           	5.881222e+02
992           	5.881222e+02
993           	5.881222e+02
994           	5.881222e+02
995           	5.881221e+02
996           	5.881220e+02
997           	5.881218e+02
998           	5.881216e+02
999           	5.881214e+02
1000          	5.881212e+02
1001          	5.881209e+02
1002          	5.881206e+02
1003          	5.881203e+02
1004          	5.881199e+02
1005          	5.881195e+02
1006          	5.881191e+02
1007          	5.881186e+02
1008          	5.881181e+02
1009          	5.881177e+02
1010          	5.881171e+02
1011          	5.881166e+02
1012          	5.881161e+02
1013          	5.881155e+02
1014          	5.881149e+02
1015          	5.881143e+02
1016          	5.881137e+02
1017          	5.881131e+02
1018          	5.881125e+02
1019          	5.881118e+02
1020          	5.881112e+02
1021          	5.881106e+02
1022          	5.881100e+02
1023          	5.881094e+02
1024          	5.881088e+02
1025          	5.881082e+02
1026          	5.881077e+02
1027          	5.881071e+02
1028          	5.881066e+02
1029          	5.881060e+02
1030          	5.881055e+02
1031          	5.881050e+02
1032          	5.881044e+02
1033          	5.881038e+02
1034          	5.881033e+02
1035          	5.881027e+02
1036          	5.881021e+02
1037          	5.881015e+02
1038          	5.881009e+02
1039          	5.881003e+02
1040          	5.880997e+02
1041          	5.880990e+02
1042          	5.880984e+02
1043          	5.880978e+02
1044          	5.880971e+02
1045          	5.880965e+02
1046          	5.880958e+02
1047          	5.880952e+02
1048          	5.880945e+02
1049          	5.880939e+02
1050          	5.880932e+02
1051          	5.880926e+02
1052          	5.880919e+02
1053          	5.880912e+02
1054          	5.880906e+02
1055          	5.880899e+02
1056          	5.880893e+02
1057          	5.880886e+02
1058          	5.880880e+02
1059          	5.880874e+02
1060          	5.880867e+02
1061          	5.880861e+02
1062          	5.880855e+02
1063          	5.880849e+02
1064          	5.880843e+02
1065          	5.880837e+02
1066          	5.880831e+02
1067          	5.880826e+02