# Region      : all 
# Cells       : 602
# Volume      : 1.000000e-06
# Time        	max(T)
0             	2.969000e+02
1             	3.140302e+02
2             	3.164507e+02
3             	3.190434e+02
4             	3.215232e+02
5             	3.239052e+02
6             	3.262159e+02
7             	3.284766e+02
8             	3.306971e+02
9             	3.328855e+02
10            	3.350471e+02
11            	3.371855e+02
12            	3.393028e+02
13            	3.414008e+02
14            	3.434804e+02
15            	3.455424e+02
16            	3.475874e+02
17            	3.496157e+02
18            	3.516279e+02
19            	3.536242e+02
20            	3.556050e+02
21            	3.575704e+02
22            	3.595207e+02
23            	3.614560e+02
24            	3.633764e+02
25            	3.652821e+02
26            	3.671732e+02
27            	3.690500e+02
28            	3.709127e+02
29            	3.727612e+02
30            	3.745956e+02
31            	3.764151e+02
32            	3.782192e+02
33            	3.800075e+02
34            	3.817788e+02
35            	3.835327e+02
36            	3.852692e+02
37            	3.869881e+02
38            	3.886894e+02
39            	3.903729e+02
40            	3.920388e+02
41            	3.936870e+02
42            	3.953176e+02
43            	3.969309e+02
44            	3.985269e+02
45            	4.001057e+02
46            	4.016672e+02
47            	4.032115e+02
48            	4.047390e+02
49            	4.062497e+02
50            	4.077440e+02
51            	4.092220e+02
52            	4.106838e+02
53            	4.121297e+02
54            	4.135598e+02
55            	4.149743e+02
56            	4.163734e+02
57            	4.177572e+02
58            	4.191259e+02
59            	4.204797e+02
60            	4.218188e+02
61            	4.231433e+02
62            	4.244534e+02
63            	4.257492e+02
64            	4.270310e+02
65            	4.282989e+02
66            	4.295531e+02
67            	4.307937e+02
68            	4.320209e+02
69            	4.332348e+02
70            	4.344355e+02
71            	4.356231e+02
72            	4.367980e+02
73            	4.379601e+02
74            	4.391095e+02
75            	4.402464e+02
76            	4.413709e+02
77            	4.424832e+02
78            	4.435833e+02
79            	4.446713e+02
80            	4.457473e+02
81            	4.468115e+02
82            	4.478640e+02
83            	4.489050e+02
84            	4.499345e+02
85            	4.509527e+02
86            	4.519598e+02
87            	4.529559e+02
88            	4.539411e+02
89            	4.549155e+02
90            	4.558793e+02
91            	4.568326e+02
92            	4.577755e+02
93            	4.587081e+02
94            	4.596305e+02
95            	4.605428e+02
96            	4.614453e+02
97            	4.623378e+02
98            	4.632206e+02
99            	4.640938e+02
100           	4.649573e+02
101           	4.658113e+02
102           	4.666559e+02
103           	4.674912e+02
104           	4.683172e+02
105           	4.691341e+02
106           	4.699419e+02
107           	4.707408e+02
108           	4.715308e+02
109           	4.723121e+02
110           	4.730847e+02
111           	4.738488e+02
112           	4.746043e+02
113           	4.753514e+02
114           	4.760902e+02
115           	4.768208e+02
116           	4.775432e+02
117           	4.782575e+02
118           	4.789638e+02
119           	4.796622e+02
120           	4.803528e+02
121           	4.810356e+02
122           	4.817108e+02
123           	4.823783e+02
124           	4.830384e+02
125           	4.836910e+02
126           	4.843363e+02
127           	4.849744e+02
128           	4.856053e+02
129           	4.862290e+02
130           	4.868458e+02
131           	4.874555e+02
132           	4.880584e+02
133           	4.886544e+02
134           	4.892437e+02
135           	4.898263e+02
136           	4.904022e+02
137           	4.909716e+02
138           	4.915345e+02
139           	4.920910e+02
140           	4.926411e+02
141           	4.931849e+02
142           	4.937225e+02
143           	4.942538e+02
144           	4.947790e+02
145           	4.952982e+02
146           	4.958112e+02
147           	4.963183e+02
148           	4.968194e+02
149           	4.973145e+02
150           	4.978038e+02
151           	4.982873e+02
152           	4.987650e+02
153           	4.992371e+02
154           	4.997036e+02
155           	5.001645e+02
156           	5.006198e+02
157           	5.010697e+02
158           	5.015142e+02
159           	5.019533e+02
160           	5.023872e+02
161           	5.028158e+02
162           	5.032393e+02
163           	5.036576e+02
164           	5.040710e+02
165           	5.044793e+02
166           	5.048827e+02
167           	5.052813e+02
168           	5.056751e+02
169           	5.060642e+02
170           	5.064487e+02
171           	5.068285e+02
172           	5.072039e+02
173           	5.075748e+02
174           	5.079412e+02
175           	5.083033e+02
176           	5.086610e+02
177           	5.090144e+02
178           	5.093635e+02
179           	5.097085e+02
180           	5.100492e+02
181           	5.103859e+02
182           	5.107185e+02
183           	5.110471e+02
184           	5.113717e+02
185           	5.116924e+02
186           	5.120092e+02
187           	5.123222e+02
188           	5.126314e+02
189           	5.129369e+02
190           	5.132386e+02
191           	5.135366e+02
192           	5.138309e+02
193           	5.141217e+02
194           	5.144089e+02
195           	5.146926e+02
196           	5.149729e+02
197           	5.152498e+02
198           	5.155235e+02
199           	5.157939e+02
200           	5.160611e+02
201           	5.163252e+02
202           	5.165861e+02
203           	5.168440e+02
204           	5.170989e+02
205           	5.173507e+02
206           	5.175996e+02
207           	5.178455e+02
208           	5.180885e+02
209           	5.183287e+02
210           	5.185660e+02
211           	5.188006e+02
212           	5.190325e+02
213           	5.192617e+02
214           	5.194882e+02
215           	5.197121e+02
216           	5.199333e+02
217           	5.201519e+02
218           	5.203678e+02
219           	5.205812e+02
220           	5.207921e+02
221           	5.210005e+02
222           	5.212064e+02
223           	5.214100e+02
224           	5.216112e+02
225           	5.218100e+02
226           	5.220064e+02
227           	5.222005e+02
228           	5.223922e+02
229           	5.225817e+02
230           	5.227689e+02
231           	5.229538e+02
232           	5.231365e+02
233           	5.233169e+02
234           	5.234951e+02
235           	5.236712e+02
236           	5.238450e+02
237           	5.240167e+02
238           	5.241862e+02
239           	5.243536e+02
240           	5.245189e+02
241           	5.246822e+02
242           	5.248434e+02
243           	5.250026e+02
244           	5.251599e+02
245           	5.253151e+02
246           	5.254683e+02
247           	5.256197e+02
248           	5.257690e+02
249           	5.259165e+02
250           	5.260621e+02
251           	5.262059e+02
252           	5.263479e+02
253           	5.264882e+02
254           	5.266267e+02
255           	5.267634e+02
256           	5.268984e+02
257           	5.270317e+02
258           	5.271634e+02
259           	5.272933e+02
260           	5.274217e+02
261           	5.275484e+02
262           	5.276735e+02
263           	5.277972e+02
264           	5.279192e+02
265           	5.280398e+02
266           	5.281589e+02
267           	5.282766e+02
268           	5.283928e+02
269           	5.285076e+02
270           	5.286211e+02
271           	5.287332e+02
272           	5.288440e+02
273           	5.289534e+02
274           	5.290616e+02
275           	5.291685e+02
276           	5.292743e+02
277           	5.293788e+02
278           	5.294821e+02
279           	5.295843e+02
280           	5.296853e+02
281           	5.297852e+02
282           	5.298840e+02
283           	5.299817e+02
284           	5.300784e+02
285           	5.301740e+02
286           	5.302685e+02
287           	5.303620e+02
288           	5.304544e+02
289           	5.305457e+02
290           	5.306360e+02
291           	5.307254e+02
292           	5.308138e+02
293           	5.309012e+02
294           	5.309877e+02
295           	5.310732e+02
296           	5.311578e+02
297           	5.312414e+02
298           	5.313242e+02
299           	5.314061e+02
300           	5.314870e+02
301           	5.315670e+02
302           	5.316462e+02
303           	5.317244e+02
304           	5.318017e+02
305           	5.318782e+02
306           	5.319538e+02
307           	5.320286e+02
308           	5.321027e+02
309           	5.321760e+02
310           	5.322485e+02
311           	5.323203e+02
312           	5.323913e+02
313           	5.324617e+02
314           	5.325313e+02
315           	5.326002e+02
316           	5.326683e+02
317           	5.327358e+02
318           	5.328025e+02
319           	5.328685e+02
320           	5.329337e+02
321           	5.329983e+02
322           	5.330621e+02
323           	5.331253e+02
324           	5.331877e+02
325           	5.332496e+02
326           	5.333107e+02
327           	5.333713e+02
328           	5.334312e+02
329           	5.334905e+02
330           	5.335492e+02
331           	5.336073e+02
332           	5.336648e+02
333           	5.337218e+02
334           	5.337782e+02
335           	5.338340e+02
336           	5.338892e+02
337           	5.339439e+02
338           	5.339980e+02
339           	5.340516e+02
340           	5.341046e+02
341           	5.341571e+02
342           	5.342090e+02
343           	5.342604e+02
344           	5.343112e+02
345           	5.343616e+02
346           	5.344114e+02
347           	5.344608e+02
348           	5.345096e+02
349           	5.345580e+02
350           	5.346059e+02
351           	5.346533e+02
352           	5.347003e+02
353           	5.347469e+02
354           	5.347930e+02
355           	5.348387e+02
356           	5.348839e+02
357           	5.349287e+02
358           	5.349731e+02
359           	5.350170e+02
360           	5.350606e+02
361           	5.351037e+02
362           	5.351463e+02
363           	5.351886e+02
364           	5.352304e+02
365           	5.352718e+02
366           	5.353129e+02
367           	5.353535e+02
368           	5.353938e+02
369           	5.354337e+02
370           	5.354731e+02
371           	5.355123e+02
372           	5.355510e+02
373           	5.355895e+02
374           	5.356276e+02
375           	5.356653e+02
376           	5.357028e+02
377           	5.357400e+02
378           	5.357768e+02
379           	5.358134e+02
380           	5.358497e+02
381           	5.358857e+02
382           	5.359214e+02
383           	5.359568e+02
384           	5.359920e+02
385           	5.360268e+02
386           	5.360614e+02
387           	5.360958e+02
388           	5.361299e+02
389           	5.361637e+02
390           	5.361973e+02
391           	5.362307e+02
392           	5.362638e+02
393           	5.362966e+02
394           	5.363293e+02
395           	5.363616e+02
396           	5.363937e+02
397           	5.364256e+02
398           	5.364572e+02
399           	5.364886e+02
400           	5.365197e+02
401           	5.365506e+02
402           	5.365812e+02
403           	5.366115e+02
404           	5.366416e+02
405           	5.366714e+02
406           	5.367010e+02
407           	5.367303e+02
408           	5.367594e+02
409           	5.367882e+02
410           	5.368168e+02
411           	5.368451e+02
412           	5.368732e+02
413           	5.369011e+02
414           	5.369287e+02
415           	5.369561e+02
416           	5.369832e+02
417           	5.370102e+02
418           	5.370369e+02
419           	5.370634e+02
420           	5.370897e+02
421           	5.371157e+02
422           	5.371416e+02
423           	5.371672e+02
424           	5.371926e+02
425           	5.372178e+02
426           	5.372428e+02
427           	5.372675e+02
428           	5.372920e+02
429           	5.373163e+02
430           	5.373403e+02
431           	5.373641e+02
432           	5.373877e+02
433           	5.374111e+02
434           	5.374343e+02
435           	5.374572e+02
436           	5.374800e+02
437           	5.375025e+02
438           	5.375248e+02
439           	5.375469e+02
440           	5.375687e+02
441           	5.375904e+02
442           	5.376119e+02
443           	5.376331e+02
444           	5.376542e+02
445           	5.376750e+02
446           	5.376957e+02
447           	5.377161e+02
448           	5.377363e+02
449           	5.377563e+02
450           	5.377761e+02
451           	5.377957e+02
452           	5.378151e+02
453           	5.378343e+02
454           	5.378532e+02
455           	5.378720e+02
456           	5.378905e+02
457           	5.379088e+02
458           	5.379269e+02
459           	5.379449e+02
460           	5.379626e+02
461           	5.379801e+02
462           	5.379974e+02
463           	5.380145e+02
464           	5.380314e+02
465           	5.380481e+02
466           	5.380646e+02
467           	5.380809e+02
468           	5.380970e+02
469           	5.381129e+02
470           	5.381286e+02
471           	5.381441e+02
472           	5.381594e+02
473           	5.381745e+02
474           	5.381894e+02
475           	5.382042e+02
476           	5.382187e+02
477           	5.382330e+02
478           	5.382471e+02
479           	5.382610e+02
480           	5.382748e+02
481           	5.382883e+02
482           	5.383017e+02
483           	5.383148e+02
484           	5.383278e+02
485           	5.383406e+02
486           	5.383532e+02
487           	5.383657e+02
488           	5.383780e+02
489           	5.383900e+02
490           	5.384020e+02
491           	5.384137e+02
492           	5.384253e+02
493           	5.384367e+02
494           	5.384479e+02
495           	5.384590e+02
496           	5.384699e+02
497           	5.384807e+02
498           	5.384913e+02
499           	5.385017e+02
500           	5.385120e+02
501           	5.385221e+02
502           	5.385321e+02
503           	5.385420e+02
504           	5.385517e+02
505           	5.385613e+02
506           	5.385707e+02
507           	5.385800e+02
508           	5.385892e+02
509           	5.385982e+02
510           	5.386071e+02
511           	5.386159e+02
512           	5.386245e+02
513           	5.386330e+02
514           	5.386414e+02
515           	5.386496e+02
516           	5.386578e+02
517           	5.386658e+02
518           	5.386737e+02
519           	5.386815e+02
520           	5.386892e+02
521           	5.386967e+02
522           	5.387042e+02
523           	5.387115e+02
524           	5.387188e+02
525           	5.387259e+02
526           	5.387330e+02
527           	5.387399e+02
528           	5.387468e+02
529           	5.387535e+02
530           	5.387602e+02
531           	5.387668e+02
532           	5.387733e+02
533           	5.387797e+02
534           	5.387860e+02
535           	5.387923e+02
536           	5.387984e+02
537           	5.388045e+02
538           	5.388105e+02
539           	5.388164e+02
540           	5.388223e+02
541           	5.388281e+02
542           	5.388338e+02
543           	5.388394e+02
544           	5.388450e+02
545           	5.388505e+02
546           	5.388559e+02
547           	5.388613e+02
548           	5.388666e+02
549           	5.388719e+02
550           	5.388771e+02
551           	5.388822e+02
552           	5.388873e+02
553           	5.388923e+02
554           	5.388973e+02
555           	5.389022e+02
556           	5.389070e+02
557           	5.389118e+02
558           	5.389166e+02
559           	5.389213e+02
560           	5.389259e+02
561           	5.389305e+02
562           	5.389351e+02
563           	5.389396e+02
564           	5.389441e+02
565           	5.389485e+02
566           	5.389528e+02
567           	5.389572e+02
568           	5.389614e+02
569           	5.389657e+02
570           	5.389699e+02
571           	5.389740e+02
572           	5.389781e+02
573           	5.389822e+02
574           	5.389862e+02
575           	5.389902e+02
576           	5.389941e+02
577           	5.389980e+02
578           	5.390019e+02
579           	5.390057e+02
580           	5.390095e+02
581           	5.390132e+02
582           	5.390169e+02
583           	5.390205e+02
584           	5.390241e+02
585           	5.390277e+02
586           	5.390313e+02
587           	5.390347e+02
588           	5.390382e+02
589           	5.390416e+02
590           	5.390450e+02
591           	5.390483e+02
592           	5.390516e+02
593           	5.390549e+02
594           	5.390581e+02
595           	5.390613e+02
596           	5.390644e+02
597           	5.390675e+02
598           	5.390705e+02
599           	5.390735e+02
600           	5.390765e+02
601           	5.390794e+02
602           	5.390823e+02
603           	5.390851e+02
604           	5.390879e+02
605           	5.390906e+02
606           	5.390933e+02
607           	5.390959e+02
608           	5.390985e+02
609           	5.391011e+02
610           	5.391036e+02
611           	5.391060e+02
612           	5.391084e+02
613           	5.391108e+02
614           	5.391131e+02
615           	5.391153e+02
616           	5.391175e+02
617           	5.391196e+02
618           	5.391217e+02
619           	5.391238e+02
620           	5.391258e+02
621           	5.391277e+02
622           	5.391296e+02
623           	5.391314e+02
624           	5.391332e+02
625           	5.391350e+02
626           	5.391367e+02
627           	5.391384e+02
628           	5.391400e+02
629           	5.391416e+02
630           	5.391431e+02
631           	5.391446e+02
632           	5.391461e+02
633           	5.391476e+02
634           	5.391490e+02
635           	5.391503e+02
636           	5.391517e+02
637           	5.391530e+02
638           	5.391542e+02
639           	5.391555e+02
640           	5.391567e+02
641           	5.391578e+02
642           	5.391590e+02
643           	5.391601e+02
644           	5.391612e+02
645           	5.391623e+02
646           	5.391633e+02
647           	5.391643e+02
648           	5.391653e+02
649           	5.391663e+02
650           	5.391673e+02
651           	5.391682e+02
652           	5.391692e+02
653           	5.391701e+02
654           	5.391710e+02
655           	5.391719e+02
656           	5.391728e+02
657           	5.391737e+02
658           	5.391746e+02
659           	5.391754e+02
660           	5.391763e+02
661           	5.391771e+02
662           	5.391780e+02
663           	5.391788e+02
664           	5.391797e+02
665           	5.391805e+02
666           	5.391813e+02
667           	5.391822e+02
668           	5.391830e+02
669           	5.391839e+02
670           	5.391847e+02
671           	5.391856e+02
672           	5.391864e+02
673           	5.391873e+02
674           	5.391881e+02
675           	5.391890e+02
676           	5.391899e+02
677           	5.391908e+02
678           	5.391917e+02
679           	5.391926e+02
680           	5.391935e+02
681           	5.391944e+02
682           	5.391953e+02
683           	5.391963e+02
684           	5.391972e+02
685           	5.391982e+02
686           	5.391991e+02
687           	5.392001e+02
688           	5.392011e+02
689           	5.392021e+02
690           	5.392031e+02
691           	5.392041e+02
692           	5.392052e+02
693           	5.392062e+02
694           	5.392073e+02
695           	5.392083e+02
696           	5.392094e+02
697           	5.392104e+02
698           	5.392115e+02
699           	5.392126e+02
700           	5.392136e+02
701           	5.392147e+02
702           	5.392158e+02
703           	5.392168e+02
704           	5.392179e+02
705           	5.392189e+02
706           	5.392200e+02
707           	5.392211e+02
708           	5.392222e+02
709           	5.392232e+02
710           	5.392243e+02
711           	5.392254e+02
712           	5.392264e+02
713           	5.392275e+02
714           	5.392285e+02
715           	5.392296e+02
716           	5.392306e+02
717           	5.392317e+02
718           	5.392327e+02
719           	5.392337e+02
720           	5.392348e+02
721           	5.392358e+02
722           	5.392368e+02
723           	5.392378e+02
724           	5.392388e+02
725           	5.392397e+02
726           	5.392407e+02
727           	5.392416e+02
728           	5.392426e+02
729           	5.392435e+02
730           	5.392444e+02
731           	5.392453e+02
732           	5.392462e+02
733           	5.392470e+02
734           	5.392479e+02
735           	5.392487e+02
736           	5.392495e+02
737           	5.392503e+02
738           	5.392511e+02
739           	5.392518e+02
740           	5.392526e+02
741           	5.392533e+02
742           	5.392540e+02
743           	5.392547e+02
744           	5.392553e+02
745           	5.392560e+02
746           	5.392566e+02
747           	5.392572e+02
748           	5.392578e+02
749           	5.392584e+02
750           	5.392589e+02
751           	5.392594e+02
752           	5.392600e+02
753           	5.392605e+02
754           	5.392610e+02
755           	5.392614e+02
756           	5.392619e+02
757           	5.392623e+02
758           	5.392628e+02
759           	5.392632e+02
760           	5.392636e+02
761           	5.392640e+02
762           	5.392643e+02
763           	5.392647e+02
764           	5.392650e+02
765           	5.392654e+02
766           	5.392657e+02
767           	5.392660e+02
768           	5.392663e+02
769           	5.392665e+02
770           	5.392668e+02
771           	5.392670e+02
772           	5.392673e+02
773           	5.392675e+02
774           	5.392677e+02
775           	5.392678e+02
776           	5.392680e+02
777           	5.392682e+02
778           	5.392683e+02
779           	5.392684e+02
780           	5.392686e+02
781           	5.392687e+02
782           	5.392688e+02
783           	5.392688e+02
784           	5.392689e+02
785           	5.392690e+02
786           	5.392690e+02
787           	5.392690e+02
788           	5.392691e+02
789           	5.392691e+02
790           	5.392691e+02
791           	5.392691e+02
792           	5.392690e+02
793           	5.392690e+02
794           	5.392690e+02
795           	5.392689e+02
796           	5.392688e+02
797           	5.392688e+02
798           	5.392687e+02
799           	5.392686e+02
800           	5.392685e+02
801           	5.392684e+02
802           	5.392683e+02
803           	5.392682e+02
804           	5.392681e+02
805           	5.392679e+02
806           	5.392678e+02
807           	5.392677e+02
808           	5.392676e+02
809           	5.392675e+02
810           	5.392674e+02
811           	5.392673e+02
812           	5.392672e+02
813           	5.392671e+02
814           	5.392671e+02
815           	5.392670e+02
816           	5.392669e+02
817           	5.392669e+02
818           	5.392668e+02
819           	5.392668e+02
820           	5.392667e+02
821           	5.392667e+02
822           	5.392667e+02
823           	5.392667e+02
824           	5.392667e+02
825           	5.392667e+02
826           	5.392667e+02
827           	5.392667e+02
828           	5.392668e+02
829           	5.392668e+02
830           	5.392668e+02
831           	5.392669e+02
832           	5.392670e+02
833           	5.392670e+02
834           	5.392671e+02
835           	5.392672e+02
836           	5.392673e+02
837           	5.392674e+02
838           	5.392675e+02
839           	5.392676e+02
840           	5.392677e+02
841           	5.392678e+02
842           	5.392679e+02
843           	5.392681e+02
844           	5.392682e+02
845           	5.392683e+02
846           	5.392685e+02
847           	5.392686e+02
848           	5.392688e+02
849           	5.392689e+02
850           	5.392691e+02
851           	5.392693e+02
852           	5.392695e+02
853           	5.392697e+02
854           	5.392699e+02
855           	5.392701e+02
856           	5.392703e+02
857           	5.392705e+02
858           	5.392707e+02
859           	5.392709e+02
860           	5.392712e+02
861           	5.392714e+02
862           	5.392717e+02
863           	5.392719e+02
864           	5.392722e+02
865           	5.392725e+02
866           	5.392728e+02
867           	5.392731e+02
868           	5.392734e+02
869           	5.392737e+02
870           	5.392741e+02
871           	5.392744e+02
872           	5.392748e+02
873           	5.392752e+02
874           	5.392756e+02
875           	5.392760e+02
876           	5.392764e+02
877           	5.392768e+02
878           	5.392772e+02
879           	5.392777e+02
880           	5.392781e+02
881           	5.392786e+02
882           	5.392791e+02
883           	5.392795e+02
884           	5.392800e+02
885           	5.392805e+02
886           	5.392810e+02
887           	5.392815e+02
888           	5.392821e+02
889           	5.392826e+02
890           	5.392831e+02
891           	5.392837e+02
892           	5.392842e+02
893           	5.392848e+02
894           	5.392853e+02
895           	5.392859e+02
896           	5.392865e+02
897           	5.392870e+02
898           	5.392876e+02
899           	5.392882e+02
900           	5.392887e+02
901           	5.392893e+02
902           	5.392899e+02
903           	5.392904e+02
904           	5.392910e+02
905           	5.392915e+02
906           	5.392921e+02
907           	5.392926e+02
908           	5.392932e+02
909           	5.392937e+02
910           	5.392942e+02
911           	5.392947e+02
912           	5.392953e+02
913           	5.392958e+02
914           	5.392963e+02
915           	5.392968e+02
916           	5.392973e+02
917           	5.392977e+02
918           	5.392982e+02
919           	5.392987e+02
920           	5.392991e+02
921           	5.392996e+02
922           	5.393000e+02
923           	5.393005e+02
924           	5.393009e+02
925           	5.393013e+02
926           	5.393017e+02
927           	5.393021e+02
928           	5.393025e+02
929           	5.393029e+02
930           	5.393033e+02
931           	5.393036e+02
932           	5.393040e+02
933           	5.393044e+02
934           	5.393047e+02
935           	5.393050e+02
936           	5.393054e+02
937           	5.393057e+02
938           	5.393060e+02
939           	5.393063e+02
940           	5.393066e+02
941           	5.393069e+02
942           	5.393072e+02
943           	5.393074e+02
944           	5.393077e+02
945           	5.393080e+02
946           	5.393082e+02
947           	5.393084e+02
948           	5.393087e+02
949           	5.393089e+02
950           	5.393091e+02
951           	5.393093e+02
952           	5.393095e+02
953           	5.393097e+02
954           	5.393099e+02
955           	5.393101e+02
956           	5.393103e+02
957           	5.393105e+02
958           	5.393106e+02
959           	5.393108e+02
960           	5.393110e+02
961           	5.393111e+02
962           	5.393113e+02
963           	5.393114e+02
964           	5.393116e+02
965           	5.393117e+02
966           	5.393118e+02
967           	5.393120e+02
968           	5.393121e+02
969           	5.393122e+02
970           	5.393123e+02
971           	5.393124e+02
972           	5.393125e+02
973           	5.393126e+02
974           	5.393127e+02
975           	5.393128e+02
976           	5.393129e+02
977           	5.393130e+02
978           	5.393130e+02
979           	5.393131e+02
980           	5.393132e+02
981           	5.393132e+02
982           	5.393133e+02
983           	5.393133e+02
984           	5.393134e+02
985           	5.393134e+02
986           	5.393134e+02
987           	5.393134e+02
988           	5.393134e+02
989           	5.393134e+02
990           	5.393134e+02
991           	5.393134e+02
992           	5.393133e+02
993           	5.393133e+02
994           	5.393132e+02
995           	5.393132e+02
996           	5.393131e+02
997           	5.393130e+02
998           	5.393130e+02
999           	5.393129e+02
1000          	5.393128e+02
1001          	5.393127e+02
1002          	5.393126e+02
1003          	5.393125e+02
1004          	5.393125e+02
1005          	5.393124e+02
1006          	5.393122e+02
1007          	5.393121e+02
1008          	5.393120e+02
1009          	5.393119e+02
1010          	5.393118e+02
1011          	5.393117e+02
1012          	5.393115e+02
1013          	5.393114e+02
1014          	5.393113e+02
1015          	5.393112e+02
1016          	5.393110e+02
1017          	5.393109e+02
1018          	5.393108e+02
1019          	5.393106e+02
1020          	5.393105e+02
1021          	5.393103e+02
1022          	5.393102e+02
1023          	5.393101e+02
1024          	5.393099e+02
1025          	5.393098e+02
1026          	5.393096e+02
1027          	5.393095e+02
1028          	5.393094e+02
1029          	5.393093e+02
1030          	5.393091e+02
1031          	5.393090e+02
1032          	5.393089e+02
1033          	5.393088e+02
1034          	5.393086e+02
1035          	5.393085e+02
1036          	5.393084e+02
1037          	5.393083e+02
1038          	5.393082e+02
1039          	5.393081e+02
1040          	5.393081e+02
1041          	5.393080e+02
1042          	5.393079e+02
1043          	5.393078e+02
1044          	5.393078e+02
1045          	5.393078e+02
1046          	5.393077e+02
1047          	5.393076e+02
1048          	5.393076e+02
1049          	5.393076e+02
1050          	5.393076e+02
1051          	5.393076e+02
1052          	5.393076e+02
1053          	5.393077e+02
1054          	5.393077e+02
1055          	5.393077e+02
1056          	5.393078e+02
1057          	5.393079e+02
1058          	5.393079e+02
1059          	5.393080e+02
1060          	5.393081e+02
1061          	5.393081e+02
1062          	5.393082e+02
1063          	5.393083e+02
1064          	5.393084e+02
1065          	5.393084e+02
1066          	5.393085e+02
1067          	5.393086e+02