# Region      : all 
# Cells       : 3143
# Volume      : 4.102922e-06
# Time        	max(T)
0             	2.969000e+02
1             	2.969000e+02
2             	2.994889e+02
3             	3.016405e+02
4             	3.038684e+02
5             	3.060886e+02
6             	3.082949e+02
7             	3.104845e+02
8             	3.126564e+02
9             	3.148200e+02
10            	3.169711e+02
11            	3.191048e+02
12            	3.212212e+02
13            	3.233204e+02
14            	3.254028e+02
15            	3.274684e+02
16            	3.295174e+02
17            	3.315501e+02
18            	3.335667e+02
19            	3.355689e+02
20            	3.375618e+02
21            	3.395392e+02
22            	3.415013e+02
23            	3.434484e+02
24            	3.453805e+02
25            	3.472978e+02
26            	3.492005e+02
27            	3.510887e+02
28            	3.529626e+02
29            	3.548223e+02
30            	3.566678e+02
31            	3.584986e+02
32            	3.603142e+02
33            	3.621147e+02
34            	3.638990e+02
35            	3.656664e+02
36            	3.674165e+02
37            	3.691494e+02
38            	3.708647e+02
39            	3.725624e+02
40            	3.742425e+02
41            	3.759050e+02
42            	3.775500e+02
43            	3.791775e+02
44            	3.807876e+02
45            	3.823804e+02
46            	3.839559e+02
47            	3.855143e+02
48            	3.870556e+02
49            	3.885800e+02
50            	3.900879e+02
51            	3.915792e+02
52            	3.930544e+02
53            	3.945180e+02
54            	3.959658e+02
55            	3.973978e+02
56            	3.988141e+02
57            	4.002151e+02
58            	4.016007e+02
59            	4.029713e+02
60            	4.043269e+02
61            	4.056678e+02
62            	4.069941e+02
63            	4.083060e+02
64            	4.096037e+02
65            	4.108873e+02
66            	4.121569e+02
67            	4.134129e+02
68            	4.146552e+02
69            	4.158841e+02
70            	4.170997e+02
71            	4.183021e+02
72            	4.194915e+02
73            	4.206680e+02
74            	4.218317e+02
75            	4.229828e+02
76            	4.241214e+02
77            	4.252475e+02
78            	4.263614e+02
79            	4.274631e+02
80            	4.285526e+02
81            	4.296302e+02
82            	4.306960e+02
83            	4.317501e+02
84            	4.327927e+02
85            	4.338238e+02
86            	4.348436e+02
87            	4.358522e+02
88            	4.368498e+02
89            	4.378365e+02
90            	4.388125e+02
91            	4.397778e+02
92            	4.407325e+02
93            	4.416768e+02
94            	4.426109e+02
95            	4.435347e+02
96            	4.444485e+02
97            	4.453523e+02
98            	4.462462e+02
99            	4.471304e+02
100           	4.480048e+02
101           	4.488696e+02
102           	4.497250e+02
103           	4.505708e+02
104           	4.514073e+02
105           	4.522346e+02
106           	4.530527e+02
107           	4.538617e+02
108           	4.546618e+02
109           	4.554531e+02
110           	4.562355e+02
111           	4.570093e+02
112           	4.577746e+02
113           	4.585313e+02
114           	4.592795e+02
115           	4.600195e+02
116           	4.607511e+02
117           	4.614747e+02
118           	4.621901e+02
119           	4.628975e+02
120           	4.635971e+02
121           	4.642888e+02
122           	4.649727e+02
123           	4.656489e+02
124           	4.663176e+02
125           	4.669787e+02
126           	4.676324e+02
127           	4.682788e+02
128           	4.689180e+02
129           	4.695499e+02
130           	4.701747e+02
131           	4.707925e+02
132           	4.714033e+02
133           	4.720072e+02
134           	4.726042e+02
135           	4.731945e+02
136           	4.737780e+02
137           	4.743549e+02
138           	4.749253e+02
139           	4.754891e+02
140           	4.760465e+02
141           	4.765975e+02
142           	4.771422e+02
143           	4.776807e+02
144           	4.782129e+02
145           	4.787390e+02
146           	4.792589e+02
147           	4.797728e+02
148           	4.802806e+02
149           	4.807825e+02
150           	4.812785e+02
151           	4.817685e+02
152           	4.822527e+02
153           	4.827312e+02
154           	4.832040e+02
155           	4.836712e+02
156           	4.841328e+02
157           	4.845888e+02
158           	4.850394e+02
159           	4.854845e+02
160           	4.859243e+02
161           	4.863588e+02
162           	4.867881e+02
163           	4.872122e+02
164           	4.876312e+02
165           	4.880452e+02
166           	4.884541e+02
167           	4.888581e+02
168           	4.892573e+02
169           	4.896517e+02
170           	4.900414e+02
171           	4.904265e+02
172           	4.908069e+02
173           	4.911829e+02
174           	4.915543e+02
175           	4.919213e+02
176           	4.922838e+02
177           	4.926421e+02
178           	4.929959e+02
179           	4.933456e+02
180           	4.936910e+02
181           	4.940322e+02
182           	4.943693e+02
183           	4.947024e+02
184           	4.950315e+02
185           	4.953566e+02
186           	4.956777e+02
187           	4.959950e+02
188           	4.963084e+02
189           	4.966181e+02
190           	4.969239e+02
191           	4.972260e+02
192           	4.975244e+02
193           	4.978191e+02
194           	4.981103e+02
195           	4.983979e+02
196           	4.986820e+02
197           	4.989627e+02
198           	4.992401e+02
199           	4.995142e+02
200           	4.997850e+02
201           	5.000526e+02
202           	5.003170e+02
203           	5.005784e+02
204           	5.008366e+02
205           	5.010918e+02
206           	5.013441e+02
207           	5.015933e+02
208           	5.018396e+02
209           	5.020829e+02
210           	5.023235e+02
211           	5.025612e+02
212           	5.027962e+02
213           	5.030284e+02
214           	5.032579e+02
215           	5.034848e+02
216           	5.037089e+02
217           	5.039304e+02
218           	5.041492e+02
219           	5.043655e+02
220           	5.045792e+02
221           	5.047903e+02
222           	5.049990e+02
223           	5.052053e+02
224           	5.054091e+02
225           	5.056105e+02
226           	5.058095e+02
227           	5.060062e+02
228           	5.062005e+02
229           	5.063924e+02
230           	5.065821e+02
231           	5.067694e+02
232           	5.069545e+02
233           	5.071373e+02
234           	5.073179e+02
235           	5.074963e+02
236           	5.076724e+02
237           	5.078464e+02
238           	5.080182e+02
239           	5.081878e+02
240           	5.083553e+02
241           	5.085207e+02
242           	5.086840e+02
243           	5.088453e+02
244           	5.090046e+02
245           	5.091619e+02
246           	5.093172e+02
247           	5.094706e+02
248           	5.096220e+02
249           	5.097714e+02
250           	5.099190e+02
251           	5.100647e+02
252           	5.102086e+02
253           	5.103508e+02
254           	5.104911e+02
255           	5.106298e+02
256           	5.107666e+02
257           	5.109018e+02
258           	5.110352e+02
259           	5.111670e+02
260           	5.112971e+02
261           	5.114256e+02
262           	5.115525e+02
263           	5.116778e+02
264           	5.118015e+02
265           	5.119237e+02
266           	5.120444e+02
267           	5.121636e+02
268           	5.122814e+02
269           	5.123977e+02
270           	5.125126e+02
271           	5.126262e+02
272           	5.127384e+02
273           	5.128492e+02
274           	5.129588e+02
275           	5.130671e+02
276           	5.131741e+02
277           	5.132799e+02
278           	5.133845e+02
279           	5.134879e+02
280           	5.135901e+02
281           	5.136912e+02
282           	5.137912e+02
283           	5.138901e+02
284           	5.139879e+02
285           	5.140846e+02
286           	5.141802e+02
287           	5.142748e+02
288           	5.143683e+02
289           	5.144607e+02
290           	5.145521e+02
291           	5.146426e+02
292           	5.147320e+02
293           	5.148205e+02
294           	5.149080e+02
295           	5.149946e+02
296           	5.150802e+02
297           	5.151648e+02
298           	5.152486e+02
299           	5.153314e+02
300           	5.154133e+02
301           	5.154943e+02
302           	5.155744e+02
303           	5.156535e+02
304           	5.157318e+02
305           	5.158091e+02
306           	5.158857e+02
307           	5.159614e+02
308           	5.160363e+02
309           	5.161104e+02
310           	5.161837e+02
311           	5.162563e+02
312           	5.163282e+02
313           	5.163993e+02
314           	5.164697e+02
315           	5.165393e+02
316           	5.166083e+02
317           	5.166765e+02
318           	5.167440e+02
319           	5.168108e+02
320           	5.168768e+02
321           	5.169422e+02
322           	5.170068e+02
323           	5.170707e+02
324           	5.171340e+02
325           	5.171966e+02
326           	5.172585e+02
327           	5.173198e+02
328           	5.173804e+02
329           	5.174404e+02
330           	5.174998e+02
331           	5.175586e+02
332           	5.176168e+02
333           	5.176744e+02
334           	5.177315e+02
335           	5.177879e+02
336           	5.178438e+02
337           	5.178991e+02
338           	5.179538e+02
339           	5.180080e+02
340           	5.180616e+02
341           	5.181147e+02
342           	5.181672e+02
343           	5.182192e+02
344           	5.182706e+02
345           	5.183215e+02
346           	5.183719e+02
347           	5.184218e+02
348           	5.184713e+02
349           	5.185202e+02
350           	5.185686e+02
351           	5.186166e+02
352           	5.186641e+02
353           	5.187112e+02
354           	5.187578e+02
355           	5.188040e+02
356           	5.188497e+02
357           	5.188950e+02
358           	5.189399e+02
359           	5.189843e+02
360           	5.190283e+02
361           	5.190719e+02
362           	5.191150e+02
363           	5.191577e+02
364           	5.192000e+02
365           	5.192419e+02
366           	5.192834e+02
367           	5.193245e+02
368           	5.193652e+02
369           	5.194055e+02
370           	5.194454e+02
371           	5.194850e+02
372           	5.195241e+02
373           	5.195630e+02
374           	5.196015e+02
375           	5.196396e+02
376           	5.196775e+02
377           	5.197150e+02
378           	5.197523e+02
379           	5.197892e+02
380           	5.198258e+02
381           	5.198622e+02
382           	5.198983e+02
383           	5.199341e+02
384           	5.199696e+02
385           	5.200048e+02
386           	5.200398e+02
387           	5.200745e+02
388           	5.201090e+02
389           	5.201432e+02
390           	5.201771e+02
391           	5.202109e+02
392           	5.202443e+02
393           	5.202775e+02
394           	5.203105e+02
395           	5.203432e+02
396           	5.203757e+02
397           	5.204079e+02
398           	5.204399e+02
399           	5.204716e+02
400           	5.205031e+02
401           	5.205343e+02
402           	5.205653e+02
403           	5.205960e+02
404           	5.206264e+02
405           	5.206566e+02
406           	5.206865e+02
407           	5.207162e+02
408           	5.207456e+02
409           	5.207748e+02
410           	5.208037e+02
411           	5.208324e+02
412           	5.208609e+02
413           	5.208891e+02
414           	5.209170e+02
415           	5.209447e+02
416           	5.209723e+02
417           	5.209995e+02
418           	5.210266e+02
419           	5.210534e+02
420           	5.210801e+02
421           	5.211065e+02
422           	5.211327e+02
423           	5.211586e+02
424           	5.211844e+02
425           	5.212099e+02
426           	5.212352e+02
427           	5.212603e+02
428           	5.212851e+02
429           	5.213097e+02
430           	5.213341e+02
431           	5.213582e+02
432           	5.213821e+02
433           	5.214058e+02
434           	5.214293e+02
435           	5.214525e+02
436           	5.214756e+02
437           	5.214984e+02
438           	5.215210e+02
439           	5.215434e+02
440           	5.215655e+02
441           	5.215875e+02
442           	5.216093e+02
443           	5.216308e+02
444           	5.216522e+02
445           	5.216733e+02
446           	5.216942e+02
447           	5.217149e+02
448           	5.217355e+02
449           	5.217558e+02
450           	5.217758e+02
451           	5.217957e+02
452           	5.218154e+02
453           	5.218348e+02
454           	5.218541e+02
455           	5.218731e+02
456           	5.218919e+02
457           	5.219105e+02
458           	5.219289e+02
459           	5.219471e+02
460           	5.219651e+02
461           	5.219829e+02
462           	5.220005e+02
463           	5.220178e+02
464           	5.220350e+02
465           	5.220520e+02
466           	5.220688e+02
467           	5.220853e+02
468           	5.221017e+02
469           	5.221178e+02
470           	5.221338e+02
471           	5.221496e+02
472           	5.221651e+02
473           	5.221805e+02
474           	5.221956e+02
475           	5.222106e+02
476           	5.222254e+02
477           	5.222399e+02
478           	5.222543e+02
479           	5.222685e+02
480           	5.222825e+02
481           	5.222963e+02
482           	5.223099e+02
483           	5.223233e+02
484           	5.223365e+02
485           	5.223496e+02
486           	5.223624e+02
487           	5.223751e+02
488           	5.223876e+02
489           	5.223999e+02
490           	5.224121e+02
491           	5.224241e+02
492           	5.224359e+02
493           	5.224475e+02
494           	5.224589e+02
495           	5.224702e+02
496           	5.224814e+02
497           	5.224923e+02
498           	5.225031e+02
499           	5.225137e+02
500           	5.225242e+02
501           	5.225346e+02
502           	5.225448e+02
503           	5.225548e+02
504           	5.225647e+02
505           	5.225744e+02
506           	5.225841e+02
507           	5.225935e+02
508           	5.226028e+02
509           	5.226120e+02
510           	5.226210e+02
511           	5.226300e+02
512           	5.226387e+02
513           	5.226474e+02
514           	5.226559e+02
515           	5.226643e+02
516           	5.226725e+02
517           	5.226807e+02
518           	5.226887e+02
519           	5.226966e+02
520           	5.227044e+02
521           	5.227121e+02
522           	5.227196e+02
523           	5.227271e+02
524           	5.227344e+02
525           	5.227417e+02
526           	5.227488e+02
527           	5.227559e+02
528           	5.227628e+02
529           	5.227697e+02
530           	5.227764e+02
531           	5.227831e+02
532           	5.227896e+02
533           	5.227961e+02
534           	5.228025e+02
535           	5.228088e+02
536           	5.228151e+02
537           	5.228212e+02
538           	5.228273e+02
539           	5.228333e+02
540           	5.228392e+02
541           	5.228450e+02
542           	5.228508e+02
543           	5.228565e+02
544           	5.228621e+02
545           	5.228677e+02
546           	5.228732e+02
547           	5.228786e+02
548           	5.228840e+02
549           	5.228893e+02
550           	5.228945e+02
551           	5.228997e+02
552           	5.229048e+02
553           	5.229099e+02
554           	5.229149e+02
555           	5.229198e+02
556           	5.229247e+02
557           	5.229296e+02
558           	5.229344e+02
559           	5.229391e+02
560           	5.229438e+02
561           	5.229484e+02
562           	5.229530e+02
563           	5.229576e+02
564           	5.229621e+02
565           	5.229665e+02
566           	5.229709e+02
567           	5.229753e+02
568           	5.229796e+02
569           	5.229839e+02
570           	5.229881e+02
571           	5.229923e+02
572           	5.229964e+02
573           	5.230005e+02
574           	5.230046e+02
575           	5.230086e+02
576           	5.230126e+02
577           	5.230165e+02
578           	5.230204e+02
579           	5.230242e+02
580           	5.230280e+02
581           	5.230318e+02
582           	5.230355e+02
583           	5.230392e+02
584           	5.230429e+02
585           	5.230465e+02
586           	5.230501e+02
587           	5.230536e+02
588           	5.230571e+02
589           	5.230605e+02
590           	5.230640e+02
591           	5.230673e+02
592           	5.230707e+02
593           	5.230740e+02
594           	5.230772e+02
595           	5.230805e+02
596           	5.230836e+02
597           	5.230868e+02
598           	5.230898e+02
599           	5.230929e+02
600           	5.230959e+02
601           	5.230989e+02
602           	5.231018e+02
603           	5.231046e+02
604           	5.231075e+02
605           	5.231102e+02
606           	5.231130e+02
607           	5.231157e+02
608           	5.231183e+02
609           	5.231209e+02
610           	5.231234e+02
611           	5.231259e+02
612           	5.231284e+02
613           	5.231308e+02
614           	5.231331e+02
615           	5.231355e+02
616           	5.231377e+02
617           	5.231399e+02
618           	5.231420e+02
619           	5.231441e+02
620           	5.231462e+02
621           	5.231482e+02
622           	5.231501e+02
623           	5.231520e+02
624           	5.231539e+02
625           	5.231557e+02
626           	5.231574e+02
627           	5.231592e+02
628           	5.231608e+02
629           	5.231625e+02
630           	5.231640e+02
631           	5.231656e+02
632           	5.231671e+02
633           	5.231686e+02
634           	5.231700e+02
635           	5.231714e+02
636           	5.231728e+02
637           	5.231741e+02
638           	5.231754e+02
639           	5.231767e+02
640           	5.231779e+02
641           	5.231791e+02
642           	5.231803e+02
643           	5.231814e+02
644           	5.231825e+02
645           	5.231836e+02
646           	5.231847e+02
647           	5.231857e+02
648           	5.231867e+02
649           	5.231877e+02
650           	5.231887e+02
651           	5.231897e+02
652           	5.231906e+02
653           	5.231916e+02
654           	5.231925e+02
655           	5.231934e+02
656           	5.231943e+02
657           	5.231952e+02
658           	5.231961e+02
659           	5.231969e+02
660           	5.231978e+02
661           	5.231986e+02
662           	5.231995e+02
663           	5.232003e+02
664           	5.232012e+02
665           	5.232020e+02
666           	5.232029e+02
667           	5.232037e+02
668           	5.232046e+02
669           	5.232054e+02
670           	5.232062e+02
671           	5.232071e+02
672           	5.232079e+02
673           	5.232088e+02
674           	5.232097e+02
675           	5.232105e+02
676           	5.232114e+02
677           	5.232123e+02
678           	5.232132e+02
679           	5.232141e+02
680           	5.232150e+02
681           	5.232159e+02
682           	5.232168e+02
683           	5.232177e+02
684           	5.232187e+02
685           	5.232196e+02
686           	5.232206e+02
687           	5.232215e+02
688           	5.232225e+02
689           	5.232235e+02
690           	5.232245e+02
691           	5.232255e+02
692           	5.232265e+02
693           	5.232275e+02
694           	5.232286e+02
695           	5.232296e+02
696           	5.232306e+02
697           	5.232317e+02
698           	5.232328e+02
699           	5.232338e+02
700           	5.232349e+02
701           	5.232360e+02
702           	5.232370e+02
703           	5.232380e+02
704           	5.232391e+02
705           	5.232401e+02
706           	5.232412e+02
707           	5.232423e+02
708           	5.232433e+02
709           	5.232444e+02
710           	5.232455e+02
711           	5.232465e+02
712           	5.232476e+02
713           	5.232487e+02
714           	5.232497e+02
715           	5.232508e+02
716           	5.232518e+02
717           	5.232529e+02
718           	5.232539e+02
719           	5.232549e+02
720           	5.232560e+02
721           	5.232570e+02
722           	5.232580e+02
723           	5.232590e+02
724           	5.232600e+02
725           	5.232610e+02
726           	5.232619e+02
727           	5.232629e+02
728           	5.232638e+02
729           	5.232648e+02
730           	5.232657e+02
731           	5.232666e+02
732           	5.232675e+02
733           	5.232683e+02
734           	5.232692e+02
735           	5.232700e+02
736           	5.232709e+02
737           	5.232717e+02
738           	5.232725e+02
739           	5.232732e+02
740           	5.232740e+02
741           	5.232747e+02
742           	5.232755e+02
743           	5.232761e+02
744           	5.232768e+02
745           	5.232775e+02
746           	5.232781e+02
747           	5.232788e+02
748           	5.232794e+02
749           	5.232800e+02
750           	5.232806e+02
751           	5.232811e+02
752           	5.232817e+02
753           	5.232822e+02
754           	5.232827e+02
755           	5.232832e+02
756           	5.232837e+02
757           	5.232841e+02
758           	5.232846e+02
759           	5.232850e+02
760           	5.232854e+02
761           	5.232859e+02
762           	5.232863e+02
763           	5.232866e+02
764           	5.232870e+02
765           	5.232874e+02
766           	5.232877e+02
767           	5.232880e+02
768           	5.232883e+02
769           	5.232886e+02
770           	5.232889e+02
771           	5.232892e+02
772           	5.232894e+02
773           	5.232897e+02
774           	5.232899e+02
775           	5.232901e+02
776           	5.232903e+02
777           	5.232905e+02
778           	5.232906e+02
779           	5.232908e+02
780           	5.232909e+02
781           	5.232910e+02
782           	5.232911e+02
783           	5.232912e+02
784           	5.232913e+02
785           	5.232914e+02
786           	5.232915e+02
787           	5.232915e+02
788           	5.232916e+02
789           	5.232916e+02
790           	5.232917e+02
791           	5.232916e+02
792           	5.232916e+02
793           	5.232916e+02
794           	5.232916e+02
795           	5.232915e+02
796           	5.232915e+02
797           	5.232914e+02
798           	5.232913e+02
799           	5.232913e+02
800           	5.232912e+02
801           	5.232911e+02
802           	5.232910e+02
803           	5.232909e+02
804           	5.232908e+02
805           	5.232907e+02
806           	5.232905e+02
807           	5.232904e+02
808           	5.232903e+02
809           	5.232902e+02
810           	5.232901e+02
811           	5.232900e+02
812           	5.232900e+02
813           	5.232899e+02
814           	5.232898e+02
815           	5.232897e+02
816           	5.232897e+02
817           	5.232896e+02
818           	5.232896e+02
819           	5.232895e+02
820           	5.232895e+02
821           	5.232895e+02
822           	5.232894e+02
823           	5.232895e+02
824           	5.232895e+02
825           	5.232895e+02
826           	5.232895e+02
827           	5.232895e+02
828           	5.232895e+02
829           	5.232896e+02
830           	5.232896e+02
831           	5.232897e+02
832           	5.232897e+02
833           	5.232898e+02
834           	5.232899e+02
835           	5.232900e+02
836           	5.232900e+02
837           	5.232901e+02
838           	5.232902e+02
839           	5.232903e+02
840           	5.232905e+02
841           	5.232906e+02
842           	5.232907e+02
843           	5.232908e+02
844           	5.232910e+02
845           	5.232911e+02
846           	5.232913e+02
847           	5.232914e+02
848           	5.232916e+02
849           	5.232918e+02
850           	5.232919e+02
851           	5.232921e+02
852           	5.232923e+02
853           	5.232925e+02
854           	5.232927e+02
855           	5.232929e+02
856           	5.232931e+02
857           	5.232933e+02
858           	5.232936e+02
859           	5.232938e+02
860           	5.232940e+02
861           	5.232943e+02
862           	5.232946e+02
863           	5.232948e+02
864           	5.232951e+02
865           	5.232954e+02
866           	5.232957e+02
867           	5.232960e+02
868           	5.232964e+02
869           	5.232967e+02
870           	5.232971e+02
871           	5.232974e+02
872           	5.232978e+02
873           	5.232982e+02
874           	5.232986e+02
875           	5.232990e+02
876           	5.232995e+02
877           	5.232999e+02
878           	5.233003e+02
879           	5.233008e+02
880           	5.233013e+02
881           	5.233017e+02
882           	5.233022e+02
883           	5.233027e+02
884           	5.233033e+02
885           	5.233038e+02
886           	5.233043e+02
887           	5.233048e+02
888           	5.233054e+02
889           	5.233059e+02
890           	5.233065e+02
891           	5.233071e+02
892           	5.233076e+02
893           	5.233082e+02
894           	5.233088e+02
895           	5.233094e+02
896           	5.233100e+02
897           	5.233106e+02
898           	5.233112e+02
899           	5.233117e+02
900           	5.233123e+02
901           	5.233129e+02
902           	5.233135e+02
903           	5.233141e+02
904           	5.233147e+02
905           	5.233152e+02
906           	5.233158e+02
907           	5.233164e+02
908           	5.233169e+02
909           	5.233175e+02
910           	5.233181e+02
911           	5.233186e+02
912           	5.233191e+02
913           	5.233197e+02
914           	5.233202e+02
915           	5.233207e+02
916           	5.233212e+02
917           	5.233217e+02
918           	5.233222e+02
919           	5.233227e+02
920           	5.233231e+02
921           	5.233236e+02
922           	5.233241e+02
923           	5.233245e+02
924           	5.233250e+02
925           	5.233254e+02
926           	5.233258e+02
927           	5.233262e+02
928           	5.233266e+02
929           	5.233270e+02
930           	5.233274e+02
931           	5.233278e+02
932           	5.233282e+02
933           	5.233285e+02
934           	5.233289e+02
935           	5.233292e+02
936           	5.233296e+02
937           	5.233299e+02
938           	5.233302e+02
939           	5.233305e+02
940           	5.233308e+02
941           	5.233311e+02
942           	5.233314e+02
943           	5.233317e+02
944           	5.233320e+02
945           	5.233322e+02
946           	5.233325e+02
947           	5.233327e+02
948           	5.233329e+02
949           	5.233332e+02
950           	5.233334e+02
951           	5.233336e+02
952           	5.233338e+02
953           	5.233340e+02
954           	5.233342e+02
955           	5.233344e+02
956           	5.233346e+02
957           	5.233348e+02
958           	5.233349e+02
959           	5.233351e+02
960           	5.233352e+02
961           	5.233354e+02
962           	5.233355e+02
963           	5.233357e+02
964           	5.233358e+02
965           	5.233360e+02
966           	5.233361e+02
967           	5.233362e+02
968           	5.233363e+02
969           	5.233364e+02
970           	5.233365e+02
971           	5.233367e+02
972           	5.233368e+02
973           	5.233368e+02
974           	5.233369e+02
975           	5.233370e+02
976           	5.233371e+02
977           	5.233372e+02
978           	5.233372e+02
979           	5.233373e+02
980           	5.233374e+02
981           	5.233374e+02
982           	5.233374e+02
983           	5.233375e+02
984           	5.233375e+02
985           	5.233375e+02
986           	5.233376e+02
987           	5.233376e+02
988           	5.233375e+02
989           	5.233375e+02
990           	5.233375e+02
991           	5.233374e+02
992           	5.233374e+02
993           	5.233373e+02
994           	5.233373e+02
995           	5.233372e+02
996           	5.233371e+02
997           	5.233370e+02
998           	5.233370e+02
999           	5.233369e+02
1000          	5.233368e+02
1001          	5.233367e+02
1002          	5.233366e+02
1003          	5.233365e+02
1004          	5.233364e+02
1005          	5.233363e+02
1006          	5.233361e+02
1007          	5.233360e+02
1008          	5.233359e+02
1009          	5.233358e+02
1010          	5.233356e+02
1011          	5.233355e+02
1012          	5.233354e+02
1013          	5.233352e+02
1014          	5.233351e+02
1015          	5.233349e+02
1016          	5.233348e+02
1017          	5.233346e+02
1018          	5.233345e+02
1019          	5.233343e+02
1020          	5.233342e+02
1021          	5.233340e+02
1022          	5.233339e+02
1023          	5.233337e+02
1024          	5.233335e+02
1025          	5.233334e+02
1026          	5.233332e+02
1027          	5.233331e+02
1028          	5.233329e+02
1029          	5.233328e+02
1030          	5.233326e+02
1031          	5.233325e+02
1032          	5.233323e+02
1033          	5.233322e+02
1034          	5.233321e+02
1035          	5.233319e+02
1036          	5.233318e+02
1037          	5.233317e+02
1038          	5.233316e+02
1039          	5.233315e+02
1040          	5.233314e+02
1041          	5.233313e+02
1042          	5.233312e+02
1043          	5.233311e+02
1044          	5.233310e+02
1045          	5.233310e+02
1046          	5.233309e+02
1047          	5.233308e+02
1048          	5.233308e+02
1049          	5.233307e+02
1050          	5.233307e+02
1051          	5.233307e+02
1052          	5.233307e+02
1053          	5.233307e+02
1054          	5.233307e+02
1055          	5.233308e+02
1056          	5.233308e+02
1057          	5.233309e+02
1058          	5.233309e+02
1059          	5.233310e+02
1060          	5.233310e+02
1061          	5.233311e+02
1062          	5.233312e+02
1063          	5.233312e+02
1064          	5.233313e+02
1065          	5.233314e+02
1066          	5.233315e+02
1067          	5.233315e+02